Butano da usare per armonia                                             
Freq      RB3LYP                                                      CC-pVDZ             
Number of atoms                            I               14
Charge                                     I                0
Multiplicity                               I                1
Number of electrons                        I               34
Number of alpha electrons                  I               17
Number of beta electrons                   I               17
Number of basis functions                  I              106
Number of independant functions            I              106
Number of point charges in /Mol/           I                0
Number of translation vectors              I                0
Number of symbols in /Mol/                 I                0
Info1-9                                    I   N=           9
          23          22        1001           0           0         100
           6          18        -501
Num ILSW                                   I              100
ILSW                                       I   N=         100
           0           0           0           0           2           0
           0           0           3           0         402      200000
           5           0           0           0           0           0
           0      800000           1           0           1           0
           1           0           0           0     1000000           0
           0           0           0           0          -1           0
           0           0           0           0           0           0
           0           0           0           1           0           0
           0           0           1      720000      810000           0
           0           0           0           0           0           0
           0           0           0           0           0           0
           0           0           0           0           0           0
           0           0           0           0           0           0
           0           0           0           0           0           0
           0           0           0           0           0           0
           0           0           0           0           0           0
           0           0           0           0
Number of contracted shells                I               54
Highest angular momentum                   I                2
Largest degree of contraction              I                7
Number of primitive shells                 I              130
Pure/Cartesian d shells                    I                0
Pure/Cartesian f shells                    I                0
Virial Ratio                               R      2.009395766375898E+00
SCF Energy                                 R     -1.584587709110811E+02
Total Energy                               R     -1.584587709110811E+02
RMS Force                                  R      2.626367602460594E-07
RMS Density                                R      1.584605159800128E-09
Atomic numbers                             I   N=          14
           6           6           6           6           1           1
           1           1           1           1           1           1
           1           1
Nuclear charges                            R   N=          14
  6.00000000E+00  6.00000000E+00  6.00000000E+00  6.00000000E+00  1.00000000E+00
  1.00000000E+00  1.00000000E+00  1.00000000E+00  1.00000000E+00  1.00000000E+00
  1.00000000E+00  1.00000000E+00  1.00000000E+00  1.00000000E+00
Current cartesian coordinates              R   N=          42
 -3.70572270E+00 -2.27195892E-01 -5.55801804E-08 -1.07402967E+00  9.71198628E-01
 -5.55801804E-08  1.07402967E+00 -9.71197850E-01 -5.55801804E-08  3.70572270E+00
  2.27194780E-01 -5.55801804E-08 -8.72310917E-01  2.21542267E+00 -1.66746416E+00
 -8.72310917E-01  2.21542456E+00  1.66746216E+00  8.72310917E-01 -2.21542378E+00
  1.66746216E+00  8.72310917E-01 -2.21542189E+00 -1.66746416E+00  5.20631839E+00
 -1.21696976E+00 -5.55801804E-08  3.98913621E+00  1.42989020E+00 -1.68004029E+00
  3.98913621E+00  1.42988831E+00  1.68004207E+00 -5.20631839E+00  1.21697054E+00
 -5.55801804E-08 -3.98913621E+00 -1.42989132E+00 -1.68004029E+00 -3.98913621E+00
 -1.42988754E+00  1.68004396E+00
Atom Types                                 C   N=          14
                                                            
                                                            
                                                
Int Atom Types                             I   N=          14
           0           0           0           0           0           0
           0           0           0           0           0           0
           0           0
Force Field                                I                0
MM charges                                 R   N=          14
  0.00000000E+00  0.00000000E+00  0.00000000E+00  0.00000000E+00  0.00000000E+00
  0.00000000E+00  0.00000000E+00  0.00000000E+00  0.00000000E+00  0.00000000E+00
  0.00000000E+00  0.00000000E+00  0.00000000E+00  0.00000000E+00
Integer atomic weights                     I   N=          14
          12          12          12          12           1           1
           1           1           1           1           1           1
           1           1
Real atomic weights                        R   N=          14
  1.20000000E+01  1.20000000E+01  1.20000000E+01  1.20000000E+01  1.00782504E+00
  1.00782504E+00  1.00782504E+00  1.00782504E+00  1.00782504E+00  1.00782504E+00
  1.00782504E+00  1.00782504E+00  1.00782504E+00  1.00782504E+00
Atom residue info                          I   N=          14
           0           0           0           0           0           0
           0           0           0           0           0           0
           0           0
Atom fragment info                         I   N=          14
           0           0           0           0           0           0
           0           0           0           0           0           0
           0           0
Atom residue num                           I   N=          14
           0           0           0           0           0           0
           0           0           0           0           0           0
           0           0
Nuclear spins                              I   N=          14
           0           0           0           0           1           1
           1           1           1           1           1           1
           1           1
Nuclear ZEff                               R   N=          14
 -3.60000000E+00 -3.60000000E+00 -3.60000000E+00 -3.60000000E+00 -1.00000000E+00
 -1.00000000E+00 -1.00000000E+00 -1.00000000E+00 -1.00000000E+00 -1.00000000E+00
 -1.00000000E+00 -1.00000000E+00 -1.00000000E+00 -1.00000000E+00
Nuclear QMom                               R   N=          14
  0.00000000E+00  0.00000000E+00  0.00000000E+00  0.00000000E+00  0.00000000E+00
  0.00000000E+00  0.00000000E+00  0.00000000E+00  0.00000000E+00  0.00000000E+00
  0.00000000E+00  0.00000000E+00  0.00000000E+00  0.00000000E+00
Nuclear GFac                               R   N=          14
  0.00000000E+00  0.00000000E+00  0.00000000E+00  0.00000000E+00  2.79284600E+00
  2.79284600E+00  2.79284600E+00  2.79284600E+00  2.79284600E+00  2.79284600E+00
  2.79284600E+00  2.79284600E+00  2.79284600E+00  2.79284600E+00
MicOpt                                     I   N=          14
          -1          -1          -1          -1          -1          -1
          -1          -1          -1          -1          -1          -1
          -1          -1
Constraint Structure                       R   N=          42
 -3.70572270E+00 -2.27195892E-01 -5.55801804E-08 -1.07402967E+00  9.71198628E-01
 -5.55801804E-08  1.07402967E+00 -9.71197850E-01 -5.55801804E-08  3.70572270E+00
  2.27194780E-01 -5.55801804E-08 -8.72310917E-01  2.21542267E+00 -1.66746416E+00
 -8.72310917E-01  2.21542456E+00  1.66746216E+00  8.72310917E-01 -2.21542378E+00
  1.66746216E+00  8.72310917E-01 -2.21542189E+00 -1.66746416E+00  5.20631839E+00
 -1.21696976E+00 -5.55801804E-08  3.98913621E+00  1.42989020E+00 -1.68004029E+00
  3.98913621E+00  1.42988831E+00  1.68004207E+00 -5.20631839E+00  1.21697054E+00
 -5.55801804E-08 -3.98913621E+00 -1.42989132E+00 -1.68004029E+00 -3.98913621E+00
 -1.42988754E+00  1.68004396E+00
ONIOM Charges                              I   N=          16
           0           0           0           0           0           0
           0           0           0           0           0           0
           0           0           0           0
ONIOM Multiplicities                       I   N=          16
           1           0           0           0           0           0
           0           0           0           0           0           0
           0           0           0           0
Atom Layers                                I   N=          14
           0           0           0           0           0           0
           0           0           0           0           0           0
           0           0
Atom Modifiers                             I   N=          14
           0           0           0           0           0           0
           0           0           0           0           0           0
           0           0
Atom Modified Types                        C   N=          14
                                                            
                                                            
                                                
Int Atom Modified Types                    I   N=          14
           0           0           0           0           0           0
           0           0           0           0           0           0
           0           0
Link Atoms                                 I   N=          14
           0           0           0           0           0           0
           0           0           0           0           0           0
           0           0
Atom Modified MM Charges                   R   N=          14
  0.00000000E+00  0.00000000E+00  0.00000000E+00  0.00000000E+00  0.00000000E+00
  0.00000000E+00  0.00000000E+00  0.00000000E+00  0.00000000E+00  0.00000000E+00
  0.00000000E+00  0.00000000E+00  0.00000000E+00  0.00000000E+00
Link Distances                             R   N=          56
  0.00000000E+00  0.00000000E+00  0.00000000E+00  0.00000000E+00  0.00000000E+00
  0.00000000E+00  0.00000000E+00  0.00000000E+00  0.00000000E+00  0.00000000E+00
  0.00000000E+00  0.00000000E+00  0.00000000E+00  0.00000000E+00  0.00000000E+00
  0.00000000E+00  0.00000000E+00  0.00000000E+00  0.00000000E+00  0.00000000E+00
  0.00000000E+00  0.00000000E+00  0.00000000E+00  0.00000000E+00  0.00000000E+00
  0.00000000E+00  0.00000000E+00  0.00000000E+00  0.00000000E+00  0.00000000E+00
  0.00000000E+00  0.00000000E+00  0.00000000E+00  0.00000000E+00  0.00000000E+00
  0.00000000E+00  0.00000000E+00  0.00000000E+00  0.00000000E+00  0.00000000E+00
  0.00000000E+00  0.00000000E+00  0.00000000E+00  0.00000000E+00  0.00000000E+00
  0.00000000E+00  0.00000000E+00  0.00000000E+00  0.00000000E+00  0.00000000E+00
  0.00000000E+00  0.00000000E+00  0.00000000E+00  0.00000000E+00  0.00000000E+00
  0.00000000E+00
MxBond                                     I                4
NBond                                      I   N=          14
           4           4           4           4           1           1
           1           1           1           1           1           1
           1           1
IBond                                      I   N=          56
           2          12          13          14           1           3
           5           6           2           4           7           8
           3           9          10          11           2           0
           0           0           2           0           0           0
           3           0           0           0           3           0
           0           0           4           0           0           0
           4           0           0           0           4           0
           0           0           1           0           0           0
           1           0           0           0           1           0
           0           0
RBond                                      R   N=          56
  1.00000000E+00  1.00000000E+00  1.00000000E+00  1.00000000E+00  1.00000000E+00
  1.00000000E+00  1.00000000E+00  1.00000000E+00  1.00000000E+00  1.00000000E+00
  1.00000000E+00  1.00000000E+00  1.00000000E+00  1.00000000E+00  1.00000000E+00
  1.00000000E+00  1.00000000E+00  0.00000000E+00  0.00000000E+00  0.00000000E+00
  1.00000000E+00  0.00000000E+00  0.00000000E+00  0.00000000E+00  1.00000000E+00
  0.00000000E+00  0.00000000E+00  0.00000000E+00  1.00000000E+00  0.00000000E+00
  0.00000000E+00  0.00000000E+00  1.00000000E+00  0.00000000E+00  0.00000000E+00
  0.00000000E+00  1.00000000E+00  0.00000000E+00  0.00000000E+00  0.00000000E+00
  1.00000000E+00  0.00000000E+00  0.00000000E+00  0.00000000E+00  1.00000000E+00
  0.00000000E+00  0.00000000E+00  0.00000000E+00  1.00000000E+00  0.00000000E+00
  0.00000000E+00  0.00000000E+00  1.00000000E+00  0.00000000E+00  0.00000000E+00
  0.00000000E+00
Shell types                                I   N=          54
           0           0           0           1           1          -2
           0           0           0           1           1          -2
           0           0           0           1           1          -2
           0           0           0           1           1          -2
           0           0           1           0           0           1
           0           0           1           0           0           1
           0           0           1           0           0           1
           0           0           1           0           0           1
           0           0           1           0           0           1
Number of primitives per shell             I   N=          54
           7           7           1           3           1           1
           7           7           1           3           1           1
           7           7           1           3           1           1
           7           7           1           3           1           1
           3           1           1           3           1           1
           3           1           1           3           1           1
           3           1           1           3           1           1
           3           1           1           3           1           1
           3           1           1           3           1           1
Shell to atom map                          I   N=          54
           1           1           1           1           1           1
           2           2           2           2           2           2
           3           3           3           3           3           3
           4           4           4           4           4           4
           5           5           5           6           6           6
           7           7           7           8           8           8
           9           9           9          10          10          10
          11          11          11          12          12          12
          13          13          13          14          14          14
Primitive exponents                        R   N=         130
  6.66500000E+03  1.00000000E+03  2.28000000E+02  6.47100000E+01  2.10600000E+01
  7.49500000E+00  2.79700000E+00  6.66500000E+03  1.00000000E+03  6.47100000E+01
  2.10600000E+01  7.49500000E+00  2.79700000E+00  5.21500000E-01  1.59600000E-01
  9.43900000E+00  2.00200000E+00  5.45600000E-01  1.51700000E-01  5.50000000E-01
  6.66500000E+03  1.00000000E+03  2.28000000E+02  6.47100000E+01  2.10600000E+01
  7.49500000E+00  2.79700000E+00  6.66500000E+03  1.00000000E+03  6.47100000E+01
  2.10600000E+01  7.49500000E+00  2.79700000E+00  5.21500000E-01  1.59600000E-01
  9.43900000E+00  2.00200000E+00  5.45600000E-01  1.51700000E-01  5.50000000E-01
  6.66500000E+03  1.00000000E+03  2.28000000E+02  6.47100000E+01  2.10600000E+01
  7.49500000E+00  2.79700000E+00  6.66500000E+03  1.00000000E+03  6.47100000E+01
  2.10600000E+01  7.49500000E+00  2.79700000E+00  5.21500000E-01  1.59600000E-01
  9.43900000E+00  2.00200000E+00  5.45600000E-01  1.51700000E-01  5.50000000E-01
  6.66500000E+03  1.00000000E+03  2.28000000E+02  6.47100000E+01  2.10600000E+01
  7.49500000E+00  2.79700000E+00  6.66500000E+03  1.00000000E+03  6.47100000E+01
  2.10600000E+01  7.49500000E+00  2.79700000E+00  5.21500000E-01  1.59600000E-01
  9.43900000E+00  2.00200000E+00  5.45600000E-01  1.51700000E-01  5.50000000E-01
  1.30100000E+01  1.96200000E+00  4.44600000E-01  1.22000000E-01  7.27000000E-01
  1.30100000E+01  1.96200000E+00  4.44600000E-01  1.22000000E-01  7.27000000E-01
  1.30100000E+01  1.96200000E+00  4.44600000E-01  1.22000000E-01  7.27000000E-01
  1.30100000E+01  1.96200000E+00  4.44600000E-01  1.22000000E-01  7.27000000E-01
  1.30100000E+01  1.96200000E+00  4.44600000E-01  1.22000000E-01  7.27000000E-01
  1.30100000E+01  1.96200000E+00  4.44600000E-01  1.22000000E-01  7.27000000E-01
  1.30100000E+01  1.96200000E+00  4.44600000E-01  1.22000000E-01  7.27000000E-01
  1.30100000E+01  1.96200000E+00  4.44600000E-01  1.22000000E-01  7.27000000E-01
  1.30100000E+01  1.96200000E+00  4.44600000E-01  1.22000000E-01  7.27000000E-01
  1.30100000E+01  1.96200000E+00  4.44600000E-01  1.22000000E-01  7.27000000E-01
Contraction coefficients                   R   N=         130
  6.93516317E-04  5.34150243E-03  2.71366714E-02  1.01992385E-01  2.75508636E-01
  4.51086433E-01  2.87565745E-01  6.28313219E-07 -5.48480000E-05 -3.63137064E-03
 -1.17983699E-02 -1.10909885E-01 -1.34742247E-01  1.10175849E+00  1.00000000E+00
  5.69792516E-02  3.13207212E-01  7.60376742E-01  1.00000000E+00  1.00000000E+00
  6.93516317E-04  5.34150243E-03  2.71366714E-02  1.01992385E-01  2.75508636E-01
  4.51086433E-01  2.87565745E-01  6.28313219E-07 -5.48480000E-05 -3.63137064E-03
 -1.17983699E-02 -1.10909885E-01 -1.34742247E-01  1.10175849E+00  1.00000000E+00
  5.69792516E-02  3.13207212E-01  7.60376742E-01  1.00000000E+00  1.00000000E+00
  6.93516317E-04  5.34150243E-03  2.71366714E-02  1.01992385E-01  2.75508636E-01
  4.51086433E-01  2.87565745E-01  6.28313219E-07 -5.48480000E-05 -3.63137064E-03
 -1.17983699E-02 -1.10909885E-01 -1.34742247E-01  1.10175849E+00  1.00000000E+00
  5.69792516E-02  3.13207212E-01  7.60376742E-01  1.00000000E+00  1.00000000E+00
  6.93516317E-04  5.34150243E-03  2.71366714E-02  1.01992385E-01  2.75508636E-01
  4.51086433E-01  2.87565745E-01  6.28313219E-07 -5.48480000E-05 -3.63137064E-03
 -1.17983699E-02 -1.10909885E-01 -1.34742247E-01  1.10175849E+00  1.00000000E+00
  5.69792516E-02  3.13207212E-01  7.60376742E-01  1.00000000E+00  1.00000000E+00
  3.34987264E-02  2.34800801E-01  8.13682958E-01  1.00000000E+00  1.00000000E+00
  3.34987264E-02  2.34800801E-01  8.13682958E-01  1.00000000E+00  1.00000000E+00
  3.34987264E-02  2.34800801E-01  8.13682958E-01  1.00000000E+00  1.00000000E+00
  3.34987264E-02  2.34800801E-01  8.13682958E-01  1.00000000E+00  1.00000000E+00
  3.34987264E-02  2.34800801E-01  8.13682958E-01  1.00000000E+00  1.00000000E+00
  3.34987264E-02  2.34800801E-01  8.13682958E-01  1.00000000E+00  1.00000000E+00
  3.34987264E-02  2.34800801E-01  8.13682958E-01  1.00000000E+00  1.00000000E+00
  3.34987264E-02  2.34800801E-01  8.13682958E-01  1.00000000E+00  1.00000000E+00
  3.34987264E-02  2.34800801E-01  8.13682958E-01  1.00000000E+00  1.00000000E+00
  3.34987264E-02  2.34800801E-01  8.13682958E-01  1.00000000E+00  1.00000000E+00
Coordinates of each shell                  R   N=         162
 -3.70572270E+00 -2.27195892E-01 -5.55801804E-08 -3.70572270E+00 -2.27195892E-01
 -5.55801804E-08 -3.70572270E+00 -2.27195892E-01 -5.55801804E-08 -3.70572270E+00
 -2.27195892E-01 -5.55801804E-08 -3.70572270E+00 -2.27195892E-01 -5.55801804E-08
 -3.70572270E+00 -2.27195892E-01 -5.55801804E-08 -1.07402967E+00  9.71198628E-01
 -5.55801804E-08 -1.07402967E+00  9.71198628E-01 -5.55801804E-08 -1.07402967E+00
  9.71198628E-01 -5.55801804E-08 -1.07402967E+00  9.71198628E-01 -5.55801804E-08
 -1.07402967E+00  9.71198628E-01 -5.55801804E-08 -1.07402967E+00  9.71198628E-01
 -5.55801804E-08  1.07402967E+00 -9.71197850E-01 -5.55801804E-08  1.07402967E+00
 -9.71197850E-01 -5.55801804E-08  1.07402967E+00 -9.71197850E-01 -5.55801804E-08
  1.07402967E+00 -9.71197850E-01 -5.55801804E-08  1.07402967E+00 -9.71197850E-01
 -5.55801804E-08  1.07402967E+00 -9.71197850E-01 -5.55801804E-08  3.70572270E+00
  2.27194780E-01 -5.55801804E-08  3.70572270E+00  2.27194780E-01 -5.55801804E-08
  3.70572270E+00  2.27194780E-01 -5.55801804E-08  3.70572270E+00  2.27194780E-01
 -5.55801804E-08  3.70572270E+00  2.27194780E-01 -5.55801804E-08  3.70572270E+00
  2.27194780E-01 -5.55801804E-08 -8.72310917E-01  2.21542267E+00 -1.66746416E+00
 -8.72310917E-01  2.21542267E+00 -1.66746416E+00 -8.72310917E-01  2.21542267E+00
 -1.66746416E+00 -8.72310917E-01  2.21542456E+00  1.66746216E+00 -8.72310917E-01
  2.21542456E+00  1.66746216E+00 -8.72310917E-01  2.21542456E+00  1.66746216E+00
  8.72310917E-01 -2.21542378E+00  1.66746216E+00  8.72310917E-01 -2.21542378E+00
  1.66746216E+00  8.72310917E-01 -2.21542378E+00  1.66746216E+00  8.72310917E-01
 -2.21542189E+00 -1.66746416E+00  8.72310917E-01 -2.21542189E+00 -1.66746416E+00
  8.72310917E-01 -2.21542189E+00 -1.66746416E+00  5.20631839E+00 -1.21696976E+00
 -5.55801804E-08  5.20631839E+00 -1.21696976E+00 -5.55801804E-08  5.20631839E+00
 -1.21696976E+00 -5.55801804E-08  3.98913621E+00  1.42989020E+00 -1.68004029E+00
  3.98913621E+00  1.42989020E+00 -1.68004029E+00  3.98913621E+00  1.42989020E+00
 -1.68004029E+00  3.98913621E+00  1.42988831E+00  1.68004207E+00  3.98913621E+00
  1.42988831E+00  1.68004207E+00  3.98913621E+00  1.42988831E+00  1.68004207E+00
 -5.20631839E+00  1.21697054E+00 -5.55801804E-08 -5.20631839E+00  1.21697054E+00
 -5.55801804E-08 -5.20631839E+00  1.21697054E+00 -5.55801804E-08 -3.98913621E+00
 -1.42989132E+00 -1.68004029E+00 -3.98913621E+00 -1.42989132E+00 -1.68004029E+00
 -3.98913621E+00 -1.42989132E+00 -1.68004029E+00 -3.98913621E+00 -1.42988754E+00
  1.68004396E+00 -3.98913621E+00 -1.42988754E+00  1.68004396E+00 -3.98913621E+00
 -1.42988754E+00  1.68004396E+00
Alpha Orbital Energies                     R   N=         106
 -1.01803094E+01 -1.01801412E+01 -1.01759352E+01 -1.01759276E+01 -7.90751167E-01
 -7.20674965E-01 -6.27105234E-01 -5.72000162E-01 -4.63523948E-01 -4.22557155E-01
 -4.16283638E-01 -4.06400219E-01 -3.65597359E-01 -3.46662721E-01 -3.32595898E-01
 -3.20700838E-01 -3.19387977E-01  6.10828785E-02  8.04418679E-02  9.54737170E-02
  1.00946801E-01  1.37586673E-01  1.40433877E-01  1.51212874E-01  1.53321774E-01
  1.60793103E-01  1.70175947E-01  2.26454778E-01  2.32801876E-01  2.49801764E-01
  4.02087383E-01  4.06155946E-01  4.09101024E-01  4.18318715E-01  4.50407014E-01
  5.07558752E-01  5.10054079E-01  5.83224181E-01  6.12180034E-01  6.34723095E-01
  6.43168512E-01  6.48234698E-01  6.52979488E-01  6.64196750E-01  6.69611706E-01
  6.69743187E-01  6.79563408E-01  6.99502657E-01  7.04501215E-01  7.24361491E-01
  7.40511061E-01  7.41986588E-01  8.97597522E-01  9.00331215E-01  9.60720019E-01
  1.07342674E+00  1.20365117E+00  1.22228326E+00  1.22381999E+00  1.22589368E+00
  1.28660579E+00  1.32684632E+00  1.42599509E+00  1.42632089E+00  1.43641346E+00
  1.49163006E+00  1.57388567E+00  1.60473592E+00  1.60818126E+00  1.62275272E+00
  1.62376355E+00  1.62473287E+00  1.64665692E+00  1.65804183E+00  1.69355668E+00
  1.70217653E+00  1.71064478E+00  1.71189948E+00  1.71261295E+00  1.74436385E+00
  1.74624336E+00  1.78155802E+00  1.87103402E+00  1.91637567E+00  1.91782880E+00
  1.95990513E+00  1.99348144E+00  2.09317066E+00  2.11716568E+00  2.13391967E+00
  2.18728236E+00  2.21648151E+00  2.21697051E+00  2.27215498E+00  2.28655596E+00
  2.31346847E+00  2.40431075E+00  2.41251744E+00  2.41727742E+00  2.46057494E+00
  2.48687661E+00  2.50740422E+00  2.58456484E+00  2.63377986E+00  2.70319065E+00
  2.71316856E+00
Alpha MO coefficients                      R   N=       11236
  1.27270625E-02 -2.21724073E-04  4.49050694E-03 -4.23329552E-04 -8.60168260E-05
 -5.16581594E-11  1.69628308E-03  5.32653197E-04 -1.30192869E-09  2.48068150E-04
 -3.80797250E-10  5.55714518E-10 -5.45082718E-04 -6.48299118E-04  7.04876346E-01
  2.17362253E-02 -1.22036999E-02 -4.69668164E-05  8.27091837E-04 -4.17367163E-11
  1.83706175E-03  1.15939258E-03  3.15909851E-09  9.91188211E-04  3.39109902E-10
  1.56373312E-09 -4.97283508E-04  7.47648116E-04  7.04709456E-01  2.17308650E-02
 -1.21985686E-02  4.70055753E-05 -8.26993403E-04 -7.44778964E-11 -1.83740901E-03
 -1.15843850E-03  3.37625952E-09  9.91111534E-04 -3.82503897E-10 -1.64211582E-09
 -4.97181563E-04  7.47745130E-04  1.27230631E-02 -2.21828703E-04  4.48950726E-03
  4.23324649E-04  8.59891804E-05  1.52913035E-11 -1.69589374E-03 -5.32423947E-04
 -1.15128316E-09  2.47963512E-04  1.39005906E-10 -2.51208728E-10 -5.45015235E-04
 -6.48192743E-04 -1.13956405E-03  1.76294961E-03  1.92844162E-04  6.75003535E-04
 -1.21444379E-03 -1.13956780E-03  1.76294681E-03  1.92843454E-04  6.75006400E-04
  1.21444350E-03 -1.13945645E-03  1.76265118E-03 -1.92829650E-04 -6.74828147E-04
  1.21416774E-03 -1.13945262E-03  1.76265436E-03 -1.92830362E-04 -6.74825236E-04
 -1.21416797E-03 -5.16306185E-04  1.14032149E-04  1.72193646E-04 -6.33925782E-05
  5.41688568E-12 -3.90851021E-04 -3.73940584E-05  3.17257139E-05 -2.98432029E-05
 -7.44120705E-05 -3.90850706E-04 -3.73921436E-05  3.17252601E-05 -2.98434254E-05
  7.44119640E-05 -5.16405785E-04  1.13915494E-04 -1.72234721E-04  6.34021394E-05
 -1.12600002E-10 -3.90931303E-04 -3.72793187E-05 -3.16970385E-05  2.98307598E-05
 -7.44200266E-05 -3.90930587E-04 -3.72768588E-05 -3.16959225E-05  2.98311151E-05
  7.44198078E-05 -1.60808619E-02 -4.14451453E-04 -4.24620609E-03  2.54389792E-05
  1.16700863E-04 -1.79855920E-10 -1.65681585E-03 -9.57388918E-04  1.85424309E-09
 -4.41026646E-04  7.90021768E-10 -1.11608901E-10  2.93230973E-04  4.45484491E-04
 -7.04678565E-01 -2.26385932E-02  2.16782987E-02 -1.59416708E-04 -4.14842286E-04
  2.36945318E-10  1.45273683E-03 -4.02119710E-03 -2.67458362E-09 -3.21210175E-04
  7.48966485E-10 -1.01045021E-09  4.28286490E-04  4.07510885E-04  7.04845472E-01
  2.26437414E-02 -2.16811917E-02 -1.59404681E-04 -4.15037970E-04 -2.83364863E-10
  1.45230093E-03 -4.02147070E-03  2.63706736E-09  3.21444405E-04  6.54561247E-10
 -1.11387867E-09 -4.28403108E-04 -4.07333410E-04  1.60835450E-02  4.14388590E-04
  4.24727567E-03  2.55401628E-05  1.16721322E-04  1.31967651E-10 -1.65721942E-03
 -9.57510976E-04 -1.27348745E-09  4.41085391E-04  4.71124684E-10  1.04020360E-10
 -2.93360788E-04 -4.45638443E-04  4.68316790E-04 -1.24881498E-03 -5.77927371E-05
 -7.53152374E-04  1.16400831E-03  4.68319456E-04 -1.24881411E-03 -5.77940056E-05
 -7.53153852E-04 -1.16400784E-03 -4.68588931E-04  1.24923206E-03 -5.78397331E-05
 -7.53313778E-04  1.16429526E-03 -4.68586070E-04  1.24923264E-03 -5.78384768E-05
 -7.53312289E-04 -1.16429568E-03 -4.17038619E-04 -4.87593100E-04  1.75024551E-04
 -3.24691372E-05  6.99367578E-12 -3.39126987E-04  4.82737231E-04 -1.22758579E-04
  4.95726537E-05 -3.35978989E-05 -3.39127089E-04  4.82738587E-04 -1.22759229E-04
  4.95725581E-05  3.35983082E-05  4.16917106E-04  4.87621084E-04  1.74983766E-04
 -3.24553583E-05  7.37177932E-11  3.39035042E-04 -4.82747224E-04 -1.22765596E-04
  4.95805890E-05  3.35806257E-05  3.39035030E-04 -4.82749496E-04 -1.22766982E-04
  4.95803314E-05 -3.35812400E-05  7.10647887E-01  2.24028786E-02 -1.51333803E-02
 -5.21442596E-04 -3.04521446E-04 -1.67011443E-10 -2.99988167E-03 -5.34955139E-04
 -3.75698109E-09  2.86918177E-04 -1.09612211E-10  2.59355550E-09 -3.28485259E-04
 -4.41884414E-04 -1.61182511E-02 -3.28252441E-04  2.97588120E-03  4.02592862E-04
  1.89550206E-04 -2.60306965E-10 -3.79950115E-03 -7.58885051E-04  1.63451794E-09
  5.51813633E-04 -5.55899539E-11 -2.88201043E-10 -3.48789058E-04 -3.92636251E-04
  1.59018788E-02  3.13828711E-04 -2.92760636E-03  4.02072295E-04  1.86897387E-04
  1.81452899E-10 -3.80418668E-03 -7.63679585E-04 -1.37090741E-09 -5.46199402E-04
 -8.45691390E-11 -1.78663137E-10  3.41350596E-04  3.85773728E-04 -6.98704360E-01
 -2.20360159E-02  1.49446084E-02 -5.12801068E-04 -2.99740860E-04  8.92681762E-11
 -2.98257301E-03 -5.36406126E-04  1.87967103E-09 -2.82747123E-04 -1.14764801E-10
  1.22670928E-09  3.23182935E-04  4.36312488E-04 -1.30929054E-04  3.94346403E-04
  1.39925503E-04  2.26455255E-05  3.02752730E-05 -1.30928679E-04  3.94344542E-04
  1.39925855E-04  2.26455906E-05 -3.02757521E-05  1.23843470E-04 -3.95603417E-04
  1.42874931E-04  2.39837450E-05  3.13684087E-05  1.23843680E-04 -3.95605001E-04
  1.42874512E-04  2.39836630E-05 -3.13680149E-05  9.54539615E-04 -8.62173363E-04
 -9.63421282E-04  1.05547308E-03  6.67698368E-11  6.86949840E-04 -1.58859230E-03
 -2.66204409E-05 -7.81715697E-04  1.09251672E-03  6.86947263E-04 -1.58859289E-03
 -2.66201411E-05 -7.81713798E-04 -1.09251692E-03 -9.73445469E-04  8.84549811E-04
 -9.79659343E-04  1.07273676E-03 -1.37347937E-10 -7.02534126E-04  1.61600156E-03
 -2.80262827E-05 -7.95388024E-04 -1.11152190E-03 -7.02528782E-04  1.61600290E-03
 -2.80256497E-05 -7.95384112E-04  1.11152224E-03  6.98692639E-01  2.14568277E-02
 -1.10101983E-02 -5.05599059E-04 -2.79476974E-04 -2.78295953E-10 -9.95930060E-04
  9.04313587E-05 -2.37279165E-09  2.43495985E-04 -1.00504973E-10  2.75003743E-09
 -3.10015586E-04 -3.25088526E-04 -1.26191050E-02 -8.47941799E-04  2.82304780E-03
  2.73884593E-05  1.54963390E-04 -1.09274403E-10  3.08571584E-04  2.89321384E-04