Butano diedro spostato da usare per armonia                             
Freq      RB3LYP                                                      CC-pVDZ             
Number of atoms                            I               14
Charge                                     I                0
Multiplicity                               I                1
Number of electrons                        I               34
Number of alpha electrons                  I               17
Number of beta electrons                   I               17
Number of basis functions                  I              106
Number of independant functions            I              106
Number of point charges in /Mol/           I                0
Number of translation vectors              I                0
Number of symbols in /Mol/                 I                0
Info1-9                                    I   N=           9
          27          25        1001           0           0         100
           6          18        -501
Num ILSW                                   I              100
ILSW                                       I   N=         100
           0           0           0           0           2           0
           0           0           3           0         402      200000
           5           0           0           0           0           0
           0      800000           1           0           1           0
           1           0           0           0     1000000           0
           0           0           0           0          -1           0
           0           0           0           0           0           0
           0           0           0           1           0           0
           0           0           1      720000      810000           0
           0           0           0           0           0           0
           0           0           0           0           0           0
           0           0           0           0           0           0
           0           0           0           0           0           0
           0           0           0           0           0           0
           0           0           0           0           0           0
           0           0           0           0           0           0
           0           0           0           0
Number of contracted shells                I               54
Highest angular momentum                   I                2
Largest degree of contraction              I                7
Number of primitive shells                 I              130
Pure/Cartesian d shells                    I                0
Pure/Cartesian f shells                    I                0
Virial Ratio                               R      2.009402345567462E+00
SCF Energy                                 R     -1.584532500617709E+02
Total Energy                               R     -1.584532500617709E+02
RMS Force                                  R      4.981408219560959E-05
RMS Density                                R      6.749034314764779E-10
Atomic numbers                             I   N=          14
           6           6           6           6           1           1
           1           1           1           1           1           1
           1           1
Nuclear charges                            R   N=          14
  6.00000000E+00  6.00000000E+00  6.00000000E+00  6.00000000E+00  1.00000000E+00
  1.00000000E+00  1.00000000E+00  1.00000000E+00  1.00000000E+00  1.00000000E+00
  1.00000000E+00  1.00000000E+00  1.00000000E+00  1.00000000E+00
Current cartesian coordinates              R   N=          42
  3.47954654E+00  2.53661521E-01 -6.22619853E-01  1.17005799E+00 -8.80852622E-01
  7.02784078E-01 -1.17005764E+00  8.80959769E-01  7.02657550E-01 -3.47954804E+00
 -2.53756410E-01 -6.22585521E-01  6.75209753E-01 -2.68511729E+00 -2.24991095E-01
  1.68554636E+00 -1.38400968E+00  2.66046963E+00 -1.68554831E+00  1.38439684E+00
  2.66026896E+00 -6.75214628E-01  2.68508591E+00 -2.25387930E-01 -5.09698065E+00
  1.05965432E+00 -6.08107533E-01 -3.05661435E+00 -7.12232182E-01 -2.61307369E+00
 -4.09229063E+00 -2.01803939E+00  3.05417425E-01  5.09698011E+00 -1.05974621E+00
 -6.07951896E-01  3.05662436E+00  7.11850462E-01 -2.61317831E+00  4.09229493E+00
  2.01808368E+00  3.05116931E-01
Atom Types                                 C   N=          14
                                                            
                                                            
                                                
Int Atom Types                             I   N=          14
           0           0           0           0           0           0
           0           0           0           0           0           0
           0           0
Force Field                                I                0
MM charges                                 R   N=          14
  0.00000000E+00  0.00000000E+00  0.00000000E+00  0.00000000E+00  0.00000000E+00
  0.00000000E+00  0.00000000E+00  0.00000000E+00  0.00000000E+00  0.00000000E+00
  0.00000000E+00  0.00000000E+00  0.00000000E+00  0.00000000E+00
Integer atomic weights                     I   N=          14
          12          12          12          12           1           1
           1           1           1           1           1           1
           1           1
Real atomic weights                        R   N=          14
  1.20000000E+01  1.20000000E+01  1.20000000E+01  1.20000000E+01  1.00782504E+00
  1.00782504E+00  1.00782504E+00  1.00782504E+00  1.00782504E+00  1.00782504E+00
  1.00782504E+00  1.00782504E+00  1.00782504E+00  1.00782504E+00
Atom residue info                          I   N=          14
           0           0           0           0           0           0
           0           0           0           0           0           0
           0           0
Atom fragment info                         I   N=          14
           0           0           0           0           0           0
           0           0           0           0           0           0
           0           0
Atom residue num                           I   N=          14
           0           0           0           0           0           0
           0           0           0           0           0           0
           0           0
Nuclear spins                              I   N=          14
           0           0           0           0           1           1
           1           1           1           1           1           1
           1           1
Nuclear ZEff                               R   N=          14
 -3.60000000E+00 -3.60000000E+00 -3.60000000E+00 -3.60000000E+00 -1.00000000E+00
 -1.00000000E+00 -1.00000000E+00 -1.00000000E+00 -1.00000000E+00 -1.00000000E+00
 -1.00000000E+00 -1.00000000E+00 -1.00000000E+00 -1.00000000E+00
Nuclear QMom                               R   N=          14
  0.00000000E+00  0.00000000E+00  0.00000000E+00  0.00000000E+00  0.00000000E+00
  0.00000000E+00  0.00000000E+00  0.00000000E+00  0.00000000E+00  0.00000000E+00
  0.00000000E+00  0.00000000E+00  0.00000000E+00  0.00000000E+00
Nuclear GFac                               R   N=          14
  0.00000000E+00  0.00000000E+00  0.00000000E+00  0.00000000E+00  2.79284600E+00
  2.79284600E+00  2.79284600E+00  2.79284600E+00  2.79284600E+00  2.79284600E+00
  2.79284600E+00  2.79284600E+00  2.79284600E+00  2.79284600E+00
MicOpt                                     I   N=          14
          -1          -1          -1          -1          -1          -1
          -1          -1          -1          -1          -1          -1
          -1          -1
Constraint Structure                       R   N=          42
  3.47954654E+00  2.53661521E-01 -6.22619853E-01  1.17005799E+00 -8.80852622E-01
  7.02784078E-01 -1.17005764E+00  8.80959769E-01  7.02657550E-01 -3.47954804E+00
 -2.53756410E-01 -6.22585521E-01  6.75209753E-01 -2.68511729E+00 -2.24991095E-01
  1.68554636E+00 -1.38400968E+00  2.66046963E+00 -1.68554831E+00  1.38439684E+00
  2.66026896E+00 -6.75214628E-01  2.68508591E+00 -2.25387930E-01 -5.09698065E+00
  1.05965432E+00 -6.08107533E-01 -3.05661435E+00 -7.12232182E-01 -2.61307369E+00
 -4.09229063E+00 -2.01803939E+00  3.05417425E-01  5.09698011E+00 -1.05974621E+00
 -6.07951896E-01  3.05662436E+00  7.11850462E-01 -2.61317831E+00  4.09229493E+00
  2.01808368E+00  3.05116931E-01
ONIOM Charges                              I   N=          16
           0           0           0           0           0           0
           0           0           0           0           0           0
           0           0           0           0
ONIOM Multiplicities                       I   N=          16
           1           0           0           0           0           0
           0           0           0           0           0           0
           0           0           0           0
Atom Layers                                I   N=          14
           0           0           0           0           0           0
           0           0           0           0           0           0
           0           0
Atom Modifiers                             I   N=          14
           0           0           0           0           0           0
           0           0           0           0           0           0
           0           0
Atom Modified Types                        C   N=          14
                                                            
                                                            
                                                
Int Atom Modified Types                    I   N=          14
           0           0           0           0           0           0
           0           0           0           0           0           0
           0           0
Link Atoms                                 I   N=          14
           0           0           0           0           0           0
           0           0           0           0           0           0
           0           0
Atom Modified MM Charges                   R   N=          14
  0.00000000E+00  0.00000000E+00  0.00000000E+00  0.00000000E+00  0.00000000E+00
  0.00000000E+00  0.00000000E+00  0.00000000E+00  0.00000000E+00  0.00000000E+00
  0.00000000E+00  0.00000000E+00  0.00000000E+00  0.00000000E+00
Link Distances                             R   N=          56
  0.00000000E+00  0.00000000E+00  0.00000000E+00  0.00000000E+00  0.00000000E+00
  0.00000000E+00  0.00000000E+00  0.00000000E+00  0.00000000E+00  0.00000000E+00
  0.00000000E+00  0.00000000E+00  0.00000000E+00  0.00000000E+00  0.00000000E+00
  0.00000000E+00  0.00000000E+00  0.00000000E+00  0.00000000E+00  0.00000000E+00
  0.00000000E+00  0.00000000E+00  0.00000000E+00  0.00000000E+00  0.00000000E+00
  0.00000000E+00  0.00000000E+00  0.00000000E+00  0.00000000E+00  0.00000000E+00
  0.00000000E+00  0.00000000E+00  0.00000000E+00  0.00000000E+00  0.00000000E+00
  0.00000000E+00  0.00000000E+00  0.00000000E+00  0.00000000E+00  0.00000000E+00
  0.00000000E+00  0.00000000E+00  0.00000000E+00  0.00000000E+00  0.00000000E+00
  0.00000000E+00  0.00000000E+00  0.00000000E+00  0.00000000E+00  0.00000000E+00
  0.00000000E+00  0.00000000E+00  0.00000000E+00  0.00000000E+00  0.00000000E+00
  0.00000000E+00
MxBond                                     I                4
NBond                                      I   N=          14
           4           4           4           4           1           1
           1           1           1           1           1           1
           1           1
IBond                                      I   N=          56
           2          12          13          14           1           3
           5           6           2           4           7           8
           3           9          10          11           2           0
           0           0           2           0           0           0
           3           0           0           0           3           0
           0           0           4           0           0           0
           4           0           0           0           4           0
           0           0           1           0           0           0
           1           0           0           0           1           0
           0           0
RBond                                      R   N=          56
  1.00000000E+00  1.00000000E+00  1.00000000E+00  1.00000000E+00  1.00000000E+00
  1.00000000E+00  1.00000000E+00  1.00000000E+00  1.00000000E+00  1.00000000E+00
  1.00000000E+00  1.00000000E+00  1.00000000E+00  1.00000000E+00  1.00000000E+00
  1.00000000E+00  1.00000000E+00  0.00000000E+00  0.00000000E+00  0.00000000E+00
  1.00000000E+00  0.00000000E+00  0.00000000E+00  0.00000000E+00  1.00000000E+00
  0.00000000E+00  0.00000000E+00  0.00000000E+00  1.00000000E+00  0.00000000E+00
  0.00000000E+00  0.00000000E+00  1.00000000E+00  0.00000000E+00  0.00000000E+00
  0.00000000E+00  1.00000000E+00  0.00000000E+00  0.00000000E+00  0.00000000E+00
  1.00000000E+00  0.00000000E+00  0.00000000E+00  0.00000000E+00  1.00000000E+00
  0.00000000E+00  0.00000000E+00  0.00000000E+00  1.00000000E+00  0.00000000E+00
  0.00000000E+00  0.00000000E+00  1.00000000E+00  0.00000000E+00  0.00000000E+00
  0.00000000E+00
Shell types                                I   N=          54
           0           0           0           1           1          -2
           0           0           0           1           1          -2
           0           0           0           1           1          -2
           0           0           0           1           1          -2
           0           0           1           0           0           1
           0           0           1           0           0           1
           0           0           1           0           0           1
           0           0           1           0           0           1
           0           0           1           0           0           1
Number of primitives per shell             I   N=          54
           7           7           1           3           1           1
           7           7           1           3           1           1
           7           7           1           3           1           1
           7           7           1           3           1           1
           3           1           1           3           1           1
           3           1           1           3           1           1
           3           1           1           3           1           1
           3           1           1           3           1           1
           3           1           1           3           1           1
Shell to atom map                          I   N=          54
           1           1           1           1           1           1
           2           2           2           2           2           2
           3           3           3           3           3           3
           4           4           4           4           4           4
           5           5           5           6           6           6
           7           7           7           8           8           8
           9           9           9          10          10          10
          11          11          11          12          12          12
          13          13          13          14          14          14
Primitive exponents                        R   N=         130
  6.66500000E+03  1.00000000E+03  2.28000000E+02  6.47100000E+01  2.10600000E+01
  7.49500000E+00  2.79700000E+00  6.66500000E+03  1.00000000E+03  6.47100000E+01
  2.10600000E+01  7.49500000E+00  2.79700000E+00  5.21500000E-01  1.59600000E-01
  9.43900000E+00  2.00200000E+00  5.45600000E-01  1.51700000E-01  5.50000000E-01
  6.66500000E+03  1.00000000E+03  2.28000000E+02  6.47100000E+01  2.10600000E+01
  7.49500000E+00  2.79700000E+00  6.66500000E+03  1.00000000E+03  6.47100000E+01
  2.10600000E+01  7.49500000E+00  2.79700000E+00  5.21500000E-01  1.59600000E-01
  9.43900000E+00  2.00200000E+00  5.45600000E-01  1.51700000E-01  5.50000000E-01
  6.66500000E+03  1.00000000E+03  2.28000000E+02  6.47100000E+01  2.10600000E+01
  7.49500000E+00  2.79700000E+00  6.66500000E+03  1.00000000E+03  6.47100000E+01
  2.10600000E+01  7.49500000E+00  2.79700000E+00  5.21500000E-01  1.59600000E-01
  9.43900000E+00  2.00200000E+00  5.45600000E-01  1.51700000E-01  5.50000000E-01
  6.66500000E+03  1.00000000E+03  2.28000000E+02  6.47100000E+01  2.10600000E+01
  7.49500000E+00  2.79700000E+00  6.66500000E+03  1.00000000E+03  6.47100000E+01
  2.10600000E+01  7.49500000E+00  2.79700000E+00  5.21500000E-01  1.59600000E-01
  9.43900000E+00  2.00200000E+00  5.45600000E-01  1.51700000E-01  5.50000000E-01
  1.30100000E+01  1.96200000E+00  4.44600000E-01  1.22000000E-01  7.27000000E-01
  1.30100000E+01  1.96200000E+00  4.44600000E-01  1.22000000E-01  7.27000000E-01
  1.30100000E+01  1.96200000E+00  4.44600000E-01  1.22000000E-01  7.27000000E-01
  1.30100000E+01  1.96200000E+00  4.44600000E-01  1.22000000E-01  7.27000000E-01
  1.30100000E+01  1.96200000E+00  4.44600000E-01  1.22000000E-01  7.27000000E-01
  1.30100000E+01  1.96200000E+00  4.44600000E-01  1.22000000E-01  7.27000000E-01
  1.30100000E+01  1.96200000E+00  4.44600000E-01  1.22000000E-01  7.27000000E-01
  1.30100000E+01  1.96200000E+00  4.44600000E-01  1.22000000E-01  7.27000000E-01
  1.30100000E+01  1.96200000E+00  4.44600000E-01  1.22000000E-01  7.27000000E-01
  1.30100000E+01  1.96200000E+00  4.44600000E-01  1.22000000E-01  7.27000000E-01
Contraction coefficients                   R   N=         130
  6.93516317E-04  5.34150243E-03  2.71366714E-02  1.01992385E-01  2.75508636E-01
  4.51086433E-01  2.87565745E-01  6.28313219E-07 -5.48480000E-05 -3.63137064E-03
 -1.17983699E-02 -1.10909885E-01 -1.34742247E-01  1.10175849E+00  1.00000000E+00
  5.69792516E-02  3.13207212E-01  7.60376742E-01  1.00000000E+00  1.00000000E+00
  6.93516317E-04  5.34150243E-03  2.71366714E-02  1.01992385E-01  2.75508636E-01
  4.51086433E-01  2.87565745E-01  6.28313219E-07 -5.48480000E-05 -3.63137064E-03
 -1.17983699E-02 -1.10909885E-01 -1.34742247E-01  1.10175849E+00  1.00000000E+00
  5.69792516E-02  3.13207212E-01  7.60376742E-01  1.00000000E+00  1.00000000E+00
  6.93516317E-04  5.34150243E-03  2.71366714E-02  1.01992385E-01  2.75508636E-01
  4.51086433E-01  2.87565745E-01  6.28313219E-07 -5.48480000E-05 -3.63137064E-03
 -1.17983699E-02 -1.10909885E-01 -1.34742247E-01  1.10175849E+00  1.00000000E+00
  5.69792516E-02  3.13207212E-01  7.60376742E-01  1.00000000E+00  1.00000000E+00
  6.93516317E-04  5.34150243E-03  2.71366714E-02  1.01992385E-01  2.75508636E-01
  4.51086433E-01  2.87565745E-01  6.28313219E-07 -5.48480000E-05 -3.63137064E-03
 -1.17983699E-02 -1.10909885E-01 -1.34742247E-01  1.10175849E+00  1.00000000E+00
  5.69792516E-02  3.13207212E-01  7.60376742E-01  1.00000000E+00  1.00000000E+00
  3.34987264E-02  2.34800801E-01  8.13682958E-01  1.00000000E+00  1.00000000E+00
  3.34987264E-02  2.34800801E-01  8.13682958E-01  1.00000000E+00  1.00000000E+00
  3.34987264E-02  2.34800801E-01  8.13682958E-01  1.00000000E+00  1.00000000E+00
  3.34987264E-02  2.34800801E-01  8.13682958E-01  1.00000000E+00  1.00000000E+00
  3.34987264E-02  2.34800801E-01  8.13682958E-01  1.00000000E+00  1.00000000E+00
  3.34987264E-02  2.34800801E-01  8.13682958E-01  1.00000000E+00  1.00000000E+00
  3.34987264E-02  2.34800801E-01  8.13682958E-01  1.00000000E+00  1.00000000E+00
  3.34987264E-02  2.34800801E-01  8.13682958E-01  1.00000000E+00  1.00000000E+00
  3.34987264E-02  2.34800801E-01  8.13682958E-01  1.00000000E+00  1.00000000E+00
  3.34987264E-02  2.34800801E-01  8.13682958E-01  1.00000000E+00  1.00000000E+00
Coordinates of each shell                  R   N=         162
  3.47954654E+00  2.53661521E-01 -6.22619853E-01  3.47954654E+00  2.53661521E-01
 -6.22619853E-01  3.47954654E+00  2.53661521E-01 -6.22619853E-01  3.47954654E+00
  2.53661521E-01 -6.22619853E-01  3.47954654E+00  2.53661521E-01 -6.22619853E-01
  3.47954654E+00  2.53661521E-01 -6.22619853E-01  1.17005799E+00 -8.80852622E-01
  7.02784078E-01  1.17005799E+00 -8.80852622E-01  7.02784078E-01  1.17005799E+00
 -8.80852622E-01  7.02784078E-01  1.17005799E+00 -8.80852622E-01  7.02784078E-01
  1.17005799E+00 -8.80852622E-01  7.02784078E-01  1.17005799E+00 -8.80852622E-01
  7.02784078E-01 -1.17005764E+00  8.80959769E-01  7.02657550E-01 -1.17005764E+00
  8.80959769E-01  7.02657550E-01 -1.17005764E+00  8.80959769E-01  7.02657550E-01
 -1.17005764E+00  8.80959769E-01  7.02657550E-01 -1.17005764E+00  8.80959769E-01
  7.02657550E-01 -1.17005764E+00  8.80959769E-01  7.02657550E-01 -3.47954804E+00
 -2.53756410E-01 -6.22585521E-01 -3.47954804E+00 -2.53756410E-01 -6.22585521E-01
 -3.47954804E+00 -2.53756410E-01 -6.22585521E-01 -3.47954804E+00 -2.53756410E-01
 -6.22585521E-01 -3.47954804E+00 -2.53756410E-01 -6.22585521E-01 -3.47954804E+00
 -2.53756410E-01 -6.22585521E-01  6.75209753E-01 -2.68511729E+00 -2.24991095E-01
  6.75209753E-01 -2.68511729E+00 -2.24991095E-01  6.75209753E-01 -2.68511729E+00
 -2.24991095E-01  1.68554636E+00 -1.38400968E+00  2.66046963E+00  1.68554636E+00
 -1.38400968E+00  2.66046963E+00  1.68554636E+00 -1.38400968E+00  2.66046963E+00
 -1.68554831E+00  1.38439684E+00  2.66026896E+00 -1.68554831E+00  1.38439684E+00
  2.66026896E+00 -1.68554831E+00  1.38439684E+00  2.66026896E+00 -6.75214628E-01
  2.68508591E+00 -2.25387930E-01 -6.75214628E-01  2.68508591E+00 -2.25387930E-01
 -6.75214628E-01  2.68508591E+00 -2.25387930E-01 -5.09698065E+00  1.05965432E+00
 -6.08107533E-01 -5.09698065E+00  1.05965432E+00 -6.08107533E-01 -5.09698065E+00
  1.05965432E+00 -6.08107533E-01 -3.05661435E+00 -7.12232182E-01 -2.61307369E+00
 -3.05661435E+00 -7.12232182E-01 -2.61307369E+00 -3.05661435E+00 -7.12232182E-01
 -2.61307369E+00 -4.09229063E+00 -2.01803939E+00  3.05417425E-01 -4.09229063E+00
 -2.01803939E+00  3.05417425E-01 -4.09229063E+00 -2.01803939E+00  3.05417425E-01
  5.09698011E+00 -1.05974621E+00 -6.07951896E-01  5.09698011E+00 -1.05974621E+00
 -6.07951896E-01  5.09698011E+00 -1.05974621E+00 -6.07951896E-01  3.05662436E+00
  7.11850462E-01 -2.61317831E+00  3.05662436E+00  7.11850462E-01 -2.61317831E+00
  3.05662436E+00  7.11850462E-01 -2.61317831E+00  4.09229493E+00  2.01808368E+00
  3.05116931E-01  4.09229493E+00  2.01808368E+00  3.05116931E-01  4.09229493E+00
  2.01808368E+00  3.05116931E-01
Alpha Orbital Energies                     R   N=         106
 -1.01799967E+01 -1.01798461E+01 -1.01763019E+01 -1.01762975E+01 -7.88268639E-01
 -7.19847949E-01 -6.28236754E-01 -5.71058193E-01 -4.56764536E-01 -4.33124209E-01
 -4.18843212E-01 -3.94059962E-01 -3.61802397E-01 -3.61437094E-01 -3.26223097E-01
 -3.19591028E-01 -3.14600189E-01  6.01113306E-02  8.66380630E-02  9.63816952E-02
  1.02413304E-01  1.33870989E-01  1.42181583E-01  1.44413095E-01  1.45299543E-01
  1.47031752E-01  1.64646736E-01  2.22147597E-01  2.56273228E-01  2.64462536E-01
  3.95302337E-01  4.15007132E-01  4.22236586E-01  4.46073473E-01  4.77484768E-01
  4.87042855E-01  5.11239519E-01  5.82622331E-01  5.91462485E-01  6.23048391E-01
  6.29702985E-01  6.46062407E-01  6.49147711E-01  6.57233996E-01  6.64205360E-01
  6.68270890E-01  6.81206754E-01  6.93386660E-01  6.94447590E-01  7.16971112E-01
  7.17724895E-01  7.43258800E-01  8.70909959E-01  8.80841410E-01  9.67254134E-01
  1.11383567E+00  1.12543182E+00  1.17712304E+00  1.18532023E+00  1.23952002E+00
  1.33506345E+00  1.37727596E+00  1.42519993E+00  1.43168868E+00  1.44852435E+00
  1.45110162E+00  1.53835320E+00  1.58245666E+00  1.58437886E+00  1.62926386E+00
  1.64829512E+00  1.64956708E+00  1.66123448E+00  1.67016437E+00  1.68312697E+00
  1.69349195E+00  1.69966691E+00  1.71734230E+00  1.73591360E+00  1.75190608E+00
  1.76321710E+00  1.78782954E+00  1.83411515E+00  1.88553978E+00  1.94734984E+00
  2.00278256E+00  2.04213005E+00  2.05712882E+00  2.07461743E+00  2.11522533E+00
  2.16828418E+00  2.19454160E+00  2.23456751E+00  2.26503807E+00  2.27633027E+00
  2.27945118E+00  2.40051513E+00  2.41418829E+00  2.47342010E+00  2.47761598E+00
  2.51931712E+00  2.55338685E+00  2.55653552E+00  2.57497701E+00  2.63902788E+00
  2.70305481E+00
Alpha MO coefficients                      R   N=       11236
  1.41724248E-02 -4.40123915E-04  5.96488909E-03  3.98986458E-04  5.59395697E-05
 -1.43268659E-04 -2.73267479E-03 -6.72216785E-04  1.31790782E-03  3.94314893E-05
  4.32608860E-04  1.18165317E-04 -2.81961520E-04 -5.55548733E-04  7.04759206E-01
  2.19005175E-02 -1.28817015E-02  1.04386442E-04 -7.11438765E-04  2.90324693E-04
 -2.71271920E-03 -2.54098588E-03  1.32260570E-03  8.83527164E-04  4.99963233E-04
  2.07249707E-04 -5.93949167E-04  7.39107700E-04  7.04808809E-01  2.19021072E-02
 -1.28831636E-02 -1.04380854E-04  7.11511718E-04  2.90236779E-04  2.71253944E-03
  2.54139309E-03  1.32234118E-03  8.83597737E-04 -5.00102970E-04 -2.07133701E-04
 -5.93936293E-04  7.39001948E-04  1.41732936E-02 -4.40084860E-04  5.96512394E-03
 -3.98976422E-04 -5.59662749E-05 -1.43259524E-04  2.73272218E-03  6.72483393E-04
  1.31784536E-03  3.94720340E-05 -4.32556301E-04 -1.18222137E-04 -2.81952951E-04
 -5.55634785E-04 -1.21773653E-03  6.53523847E-04 -3.70842418E-04 -1.17777149E-03
 -8.23962215E-04 -1.27759426E-03  1.50897697E-03  4.46905936E-04 -1.57314535E-04
  1.41002606E-03 -1.27763859E-03  1.50905629E-03 -4.46931190E-04  1.57534800E-04
  1.41009861E-03 -1.21776196E-03  6.53659812E-04  3.70861432E-04  1.17772644E-03
 -8.24187180E-04 -5.19169250E-04  4.40338144E-04 -1.90998576E-04  1.90529378E-05
 -5.40492811E-05 -5.92971508E-04  4.26996194E-04 -2.28149638E-05  7.11684508E-05
 -3.44718255E-05 -4.39163377E-04  1.79014606E-05 -1.15958308E-04  3.80092731E-05
  5.25482791E-05 -5.19136032E-04  4.40391585E-04  1.90988765E-04 -1.90540348E-05
 -5.40470697E-05 -5.92953872E-04  4.26978307E-04  2.28309804E-05 -7.11763542E-05
 -3.44626889E-05 -4.39141401E-04  1.78619892E-05  1.15971484E-04 -3.80075625E-05
  5.25496158E-05  1.93427089E-02  6.75808547E-04  3.45082581E-03  6.76349822E-07
  1.32932098E-04 -6.11858116E-05 -8.70896545E-04 -9.02646523E-04  4.15247131E-04
  1.88025635E-04  5.10308189E-04  3.50021718E-04 -2.80935914E-04 -3.29101016E-04
  7.04699964E-01  2.25422607E-02 -2.08460963E-02 -3.66052425E-05 -4.25236246E-04
  1.83337936E-04  2.39193337E-03 -2.93924277E-03  1.51111414E-03  1.07242112E-04
  3.58927926E-04  1.27857522E-04 -2.47699420E-04 -3.31074022E-04 -7.04650379E-01
 -2.25407219E-02  2.08451876E-02 -3.66160163E-05 -4.25213570E-04 -1.83256742E-04
  2.39211663E-03 -2.93929948E-03 -1.51060911E-03 -1.07218952E-04  3.58853882E-04
  1.27858373E-04  2.47644105E-04  3.31183107E-04 -1.93411996E-02 -6.75829408E-04
 -3.45042452E-03  6.37738604E-07  1.32931877E-04  6.11500521E-05 -8.70702951E-04
 -9.02669682E-04 -4.15025821E-04 -1.88108762E-04  5.10223084E-04  3.50003347E-04
  2.80860572E-04  3.29130936E-04 -3.21343597E-04  1.84414713E-03 -3.01900216E-04
 -1.06038624E-03 -7.02556232E-04 -5.16708003E-04  1.11093823E-03  3.19054915E-04
 -2.13078814E-04  1.30252383E-03  5.16627412E-04 -1.11082912E-03  3.19025798E-04
 -2.13255388E-04 -1.30239772E-03  3.21263040E-04 -1.84409957E-03 -3.01872767E-04
 -1.06020182E-03  7.02658825E-04  3.98006723E-04  6.36408639E-04  1.56845414E-04
 -4.06704297E-05  1.59890608E-05  2.67790485E-04 -1.69076765E-04 -1.48676910E-04
  5.26826267E-05  3.06917005E-05  3.29859248E-04 -6.28830994E-04 -1.39438151E-04
  8.76011551E-05 -6.46708705E-05 -3.98041902E-04 -6.36372096E-04  1.56860264E-04
 -4.06730214E-05 -1.59877418E-05 -2.67832897E-04  1.69112014E-04 -1.48671662E-04
  5.26751638E-05 -3.07021959E-05 -3.29888723E-04  6.28829696E-04 -1.39426726E-04
  8.76087577E-05  6.46591080E-05  7.05764926E-01  2.19714264E-02 -1.30693940E-02
  4.12421931E-04  2.52855625E-04 -3.01820796E-04  2.05146784E-03  3.17341799E-04
 -4.15274523E-04  7.03351207E-05  3.33023027E-04  1.55025452E-04 -2.73369043E-04
 -2.88311176E-04 -1.42899885E-02 -1.07195925E-03  3.78806321E-03  1.76745118E-05
 -2.27233966E-04  1.60823691E-04  8.23479308E-04  7.99507232E-04 -1.11635348E-03
  5.54092198E-05  5.35697339E-04  3.95328264E-04 -4.25484121E-04 -3.38856806E-04
 -1.42313907E-02 -1.07124735E-03  3.78438640E-03 -1.85539471E-05  2.26940669E-04
  1.60481559E-04 -8.16654116E-04 -8.00370299E-04 -1.11594957E-03  5.45029299E-05
 -5.34281843E-04 -3.95073603E-04 -4.24440958E-04 -3.37971031E-04  7.03635257E-01
  2.19058303E-02 -1.30326538E-02 -4.10994993E-04 -2.52159675E-04 -3.01037566E-04
 -2.04818301E-03 -3.16197114E-04 -4.12432715E-04  7.01252046E-05 -3.31994767E-04
 -1.54537764E-04 -2.72810093E-04 -2.87383827E-04 -5.80750152E-04  5.85050606E-04
 -5.09790842E-05  1.91420427E-05 -3.96416875E-05 -1.56362425E-04  2.90412311E-04
  8.71309551E-05  8.37983575E-06 -5.91385714E-05 -1.55240435E-04  2.90329102E-04
 -8.71704705E-05 -8.19945500E-06 -5.92527771E-05 -5.80672017E-04  5.84871779E-04
  5.12688883E-05 -1.90391633E-05 -3.94994625E-05 -1.03391347E-03  1.13487949E-03
 -1.01254437E-03  9.62084041E-04  1.99100964E-05 -6.98243773E-04  1.58128814E-03
  3.69936465E-04 -2.92845246E-04 -1.28867680E-03 -8.80812733E-04  1.49964753E-03
 -2.46559250E-04 -1.19137385E-03  6.55884076E-04 -1.03700382E-03  1.13878184E-03
  1.01586077E-03 -9.64875964E-04  2.02515134E-05 -7.01224182E-04  1.58574584E-03
 -3.71161933E-04  2.93498083E-04 -1.29259023E-03 -8.83415335E-04  1.50435897E-03
  2.47602138E-04  1.19491831E-03  6.57755843E-04 -7.03483965E-01 -2.16699972E-02
  1.21410986E-02 -4.71630461E-04 -2.45293097E-04  2.46910294E-04 -1.08880562E-03
 -4.03263337E-04  9.29008415E-04 -8.50286595E-05 -3.32249292E-04 -1.71629014E-04
  1.78802214E-04  3.26368874E-04  1.91954917E-02  2.28042976E-04 -1.21963908E-03
  2.87226948E-04  1.02532644E-04 -9.98663763E-05 -2.25905463E-03  2.29785604E-04