Butano diedro spostato da usare per armonia - tors CH3                  
FOpt      RB3LYP                                                      CC-pVDZ             
Number of atoms                            I               14
Charge                                     I                0
Multiplicity                               I                1
Number of electrons                        I               34
Number of alpha electrons                  I               17
Number of beta electrons                   I               17
Number of basis functions                  I              106
Number of independant functions            I              106
Number of point charges in /Mol/           I                0
Number of translation vectors              I                0
Number of symbols in /Mol/                 I                0
Info1-9                                    I   N=           9
          24          24        1000           0           0         100
           2          18        -501
Num ILSW                                   I              100
ILSW                                       I   N=         100
           0           0           0           0           2           0
           0           0           3           0         402      200000
           5           0           0           0           0           0
           0      800000           1           0           1           0
           1           0           0           0     1000000           0
           0           0           0           0          -1           0
           0           0           0           0           0           0
           0           0           0           1           0           0
           0           0           1      720000      810000           0
           0           0           0           0           0           0
           0           0           0           0           0           0
           0           0           0           0           0           0
           0           0           0           0           0           0
           0           0           0           0           0           0
           0           0           0           0           0           0
           0           0           0           0           0           0
           0           0           0           0
Number of contracted shells                I               54
Highest angular momentum                   I                2
Largest degree of contraction              I                7
Number of primitive shells                 I              130
Pure/Cartesian d shells                    I                0
Pure/Cartesian f shells                    I                0
Virial Ratio                               R      2.009395793265757E+00
SCF Energy                                 R     -1.584587716521242E+02
Total Energy                               R     -1.584587716521242E+02
RMS Force                                  R      8.671140223819055E-07
RMS Density                                R      3.391455835046037E-09
Atomic numbers                             I   N=          14
           6           6           6           6           1           1
           1           1           1           1           1           1
           1           1
Nuclear charges                            R   N=          14
  6.00000000E+00  6.00000000E+00  6.00000000E+00  6.00000000E+00  1.00000000E+00
  1.00000000E+00  1.00000000E+00  1.00000000E+00  1.00000000E+00  1.00000000E+00
  1.00000000E+00  1.00000000E+00  1.00000000E+00  1.00000000E+00
Current cartesian coordinates              R   N=          42
  7.94450811E-01 -3.62668445E+00  0.00000000E+00 -7.94451013E-01 -1.21062463E+00
 -1.38777878E-17  7.94451013E-01  1.21062463E+00  1.38777878E-17 -7.94450811E-01
  3.62668445E+00  8.32667268E-17 -2.05489639E+00 -1.20267489E+00 -1.66746428E+00
 -2.05489737E+00 -1.20267433E+00  1.66746264E+00  2.05489737E+00  1.20267433E+00
  1.66746264E+00  2.05489639E+00  1.20267489E+00 -1.66746428E+00  4.01732467E-01
  5.33154496E+00 -5.89805982E-17 -2.02642570E+00  3.72174646E+00 -1.68004029E+00
 -2.02642415E+00  3.72174631E+00  1.68004231E+00 -4.01732467E-01 -5.33154496E+00
 -4.85722573E-17  2.02642570E+00 -3.72174646E+00 -1.68004029E+00  2.02642415E+00
 -3.72174631E+00  1.68004231E+00
Atom Types                                 C   N=          14
                                                            
                                                            
                                                
Int Atom Types                             I   N=          14
           0           0           0           0           0           0
           0           0           0           0           0           0
           0           0
Force Field                                I                0
MM charges                                 R   N=          14
  0.00000000E+00  0.00000000E+00  0.00000000E+00  0.00000000E+00  0.00000000E+00
  0.00000000E+00  0.00000000E+00  0.00000000E+00  0.00000000E+00  0.00000000E+00
  0.00000000E+00  0.00000000E+00  0.00000000E+00  0.00000000E+00
Integer atomic weights                     I   N=          14
          12          12          12          12           1           1
           1           1           1           1           1           1
           1           1
Real atomic weights                        R   N=          14
  1.20000000E+01  1.20000000E+01  1.20000000E+01  1.20000000E+01  1.00782504E+00
  1.00782504E+00  1.00782504E+00  1.00782504E+00  1.00782504E+00  1.00782504E+00
  1.00782504E+00  1.00782504E+00  1.00782504E+00  1.00782504E+00
Atom residue info                          I   N=          14
           0           0           0           0           0           0
           0           0           0           0           0           0
           0           0
Atom fragment info                         I   N=          14
           0           0           0           0           0           0
           0           0           0           0           0           0
           0           0
Atom residue num                           I   N=          14
           0           0           0           0           0           0
           0           0           0           0           0           0
           0           0
Nuclear spins                              I   N=          14
           0           0           0           0           1           1
           1           1           1           1           1           1
           1           1
Nuclear ZEff                               R   N=          14
 -3.60000000E+00 -3.60000000E+00 -3.60000000E+00 -3.60000000E+00 -1.00000000E+00
 -1.00000000E+00 -1.00000000E+00 -1.00000000E+00 -1.00000000E+00 -1.00000000E+00
 -1.00000000E+00 -1.00000000E+00 -1.00000000E+00 -1.00000000E+00
Nuclear QMom                               R   N=          14
  0.00000000E+00  0.00000000E+00  0.00000000E+00  0.00000000E+00  0.00000000E+00
  0.00000000E+00  0.00000000E+00  0.00000000E+00  0.00000000E+00  0.00000000E+00
  0.00000000E+00  0.00000000E+00  0.00000000E+00  0.00000000E+00
Nuclear GFac                               R   N=          14
  0.00000000E+00  0.00000000E+00  0.00000000E+00  0.00000000E+00  2.79284600E+00
  2.79284600E+00  2.79284600E+00  2.79284600E+00  2.79284600E+00  2.79284600E+00
  2.79284600E+00  2.79284600E+00  2.79284600E+00  2.79284600E+00
MicOpt                                     I   N=          14
          -1          -1          -1          -1          -1          -1
          -1          -1          -1          -1          -1          -1
          -1          -1
Constraint Structure                       R   N=          42
  7.94450811E-01 -3.62668445E+00  0.00000000E+00 -7.94451013E-01 -1.21062463E+00
 -1.38777878E-17  7.94451013E-01  1.21062463E+00  1.38777878E-17 -7.94450811E-01
  3.62668445E+00  8.32667268E-17 -2.05489639E+00 -1.20267489E+00 -1.66746428E+00
 -2.05489737E+00 -1.20267433E+00  1.66746264E+00  2.05489737E+00  1.20267433E+00
  1.66746264E+00  2.05489639E+00  1.20267489E+00 -1.66746428E+00  4.01732467E-01
  5.33154496E+00 -5.89805982E-17 -2.02642570E+00  3.72174646E+00 -1.68004029E+00
 -2.02642415E+00  3.72174631E+00  1.68004231E+00 -4.01732467E-01 -5.33154496E+00
 -4.85722573E-17  2.02642570E+00 -3.72174646E+00 -1.68004029E+00  2.02642415E+00
 -3.72174631E+00  1.68004231E+00
ONIOM Charges                              I   N=          16
           0           0           0           0           0           0
           0           0           0           0           0           0
           0           0           0           0
ONIOM Multiplicities                       I   N=          16
           1           0           0           0           0           0
           0           0           0           0           0           0
           0           0           0           0
Atom Layers                                I   N=          14
           1           1           1           1           1           1
           1           1           1           1           1           1
           1           1
Atom Modifiers                             I   N=          14
           0           0           0           0           0           0
           0           0           0           0           0           0
           0           0
Atom Modified Types                        C   N=          14
                                                            
                                                            
                                                
Int Atom Modified Types                    I   N=          14
           0           0           0           0           0           0
           0           0           0           0           0           0
           0           0
Link Atoms                                 I   N=          14
           0           0           0           0           0           0
           0           0           0           0           0           0
           0           0
Atom Modified MM Charges                   R   N=          14
  0.00000000E+00  0.00000000E+00  0.00000000E+00  0.00000000E+00  0.00000000E+00
  0.00000000E+00  0.00000000E+00  0.00000000E+00  0.00000000E+00  0.00000000E+00
  0.00000000E+00  0.00000000E+00  0.00000000E+00  0.00000000E+00
Link Distances                             R   N=          56
  0.00000000E+00  0.00000000E+00  0.00000000E+00  0.00000000E+00  0.00000000E+00
  0.00000000E+00  0.00000000E+00  0.00000000E+00  0.00000000E+00  0.00000000E+00
  0.00000000E+00  0.00000000E+00  0.00000000E+00  0.00000000E+00  0.00000000E+00
  0.00000000E+00  0.00000000E+00  0.00000000E+00  0.00000000E+00  0.00000000E+00
  0.00000000E+00  0.00000000E+00  0.00000000E+00  0.00000000E+00  0.00000000E+00
  0.00000000E+00  0.00000000E+00  0.00000000E+00  0.00000000E+00  0.00000000E+00
  0.00000000E+00  0.00000000E+00  0.00000000E+00  0.00000000E+00  0.00000000E+00
  0.00000000E+00  0.00000000E+00  0.00000000E+00  0.00000000E+00  0.00000000E+00
  0.00000000E+00  0.00000000E+00  0.00000000E+00  0.00000000E+00  0.00000000E+00
  0.00000000E+00  0.00000000E+00  0.00000000E+00  0.00000000E+00  0.00000000E+00
  0.00000000E+00  0.00000000E+00  0.00000000E+00  0.00000000E+00  0.00000000E+00
  0.00000000E+00
MxBond                                     I                4
NBond                                      I   N=          14
           4           4           4           4           1           1
           1           1           1           1           1           1
           1           1
IBond                                      I   N=          56
           2          12          13          14           1           3
           5           6           2           4           7           8
           3           9          10          11           2           0
           0           0           2           0           0           0
           3           0           0           0           3           0
           0           0           4           0           0           0
           4           0           0           0           4           0
           0           0           1           0           0           0
           1           0           0           0           1           0
           0           0
RBond                                      R   N=          56
  1.00000000E+00  1.00000000E+00  1.00000000E+00  1.00000000E+00  1.00000000E+00
  1.00000000E+00  1.00000000E+00  1.00000000E+00  1.00000000E+00  1.00000000E+00
  1.00000000E+00  1.00000000E+00  1.00000000E+00  1.00000000E+00  1.00000000E+00
  1.00000000E+00  1.00000000E+00  0.00000000E+00  0.00000000E+00  0.00000000E+00
  1.00000000E+00  0.00000000E+00  0.00000000E+00  0.00000000E+00  1.00000000E+00
  0.00000000E+00  0.00000000E+00  0.00000000E+00  1.00000000E+00  0.00000000E+00
  0.00000000E+00  0.00000000E+00  1.00000000E+00  0.00000000E+00  0.00000000E+00
  0.00000000E+00  1.00000000E+00  0.00000000E+00  0.00000000E+00  0.00000000E+00
  1.00000000E+00  0.00000000E+00  0.00000000E+00  0.00000000E+00  1.00000000E+00
  0.00000000E+00  0.00000000E+00  0.00000000E+00  1.00000000E+00  0.00000000E+00
  0.00000000E+00  0.00000000E+00  1.00000000E+00  0.00000000E+00  0.00000000E+00
  0.00000000E+00
Shell types                                I   N=          54
           0           0           0           1           1          -2
           0           0           0           1           1          -2
           0           0           0           1           1          -2
           0           0           0           1           1          -2
           0           0           1           0           0           1
           0           0           1           0           0           1
           0           0           1           0           0           1
           0           0           1           0           0           1
           0           0           1           0           0           1
Number of primitives per shell             I   N=          54
           7           7           1           3           1           1
           7           7           1           3           1           1
           7           7           1           3           1           1
           7           7           1           3           1           1
           3           1           1           3           1           1
           3           1           1           3           1           1
           3           1           1           3           1           1
           3           1           1           3           1           1
           3           1           1           3           1           1
Shell to atom map                          I   N=          54
           1           1           1           1           1           1
           2           2           2           2           2           2
           3           3           3           3           3           3
           4           4           4           4           4           4
           5           5           5           6           6           6
           7           7           7           8           8           8
           9           9           9          10          10          10
          11          11          11          12          12          12
          13          13          13          14          14          14
Primitive exponents                        R   N=         130
  6.66500000E+03  1.00000000E+03  2.28000000E+02  6.47100000E+01  2.10600000E+01
  7.49500000E+00  2.79700000E+00  6.66500000E+03  1.00000000E+03  6.47100000E+01
  2.10600000E+01  7.49500000E+00  2.79700000E+00  5.21500000E-01  1.59600000E-01
  9.43900000E+00  2.00200000E+00  5.45600000E-01  1.51700000E-01  5.50000000E-01
  6.66500000E+03  1.00000000E+03  2.28000000E+02  6.47100000E+01  2.10600000E+01
  7.49500000E+00  2.79700000E+00  6.66500000E+03  1.00000000E+03  6.47100000E+01
  2.10600000E+01  7.49500000E+00  2.79700000E+00  5.21500000E-01  1.59600000E-01
  9.43900000E+00  2.00200000E+00  5.45600000E-01  1.51700000E-01  5.50000000E-01
  6.66500000E+03  1.00000000E+03  2.28000000E+02  6.47100000E+01  2.10600000E+01
  7.49500000E+00  2.79700000E+00  6.66500000E+03  1.00000000E+03  6.47100000E+01
  2.10600000E+01  7.49500000E+00  2.79700000E+00  5.21500000E-01  1.59600000E-01
  9.43900000E+00  2.00200000E+00  5.45600000E-01  1.51700000E-01  5.50000000E-01
  6.66500000E+03  1.00000000E+03  2.28000000E+02  6.47100000E+01  2.10600000E+01
  7.49500000E+00  2.79700000E+00  6.66500000E+03  1.00000000E+03  6.47100000E+01
  2.10600000E+01  7.49500000E+00  2.79700000E+00  5.21500000E-01  1.59600000E-01
  9.43900000E+00  2.00200000E+00  5.45600000E-01  1.51700000E-01  5.50000000E-01
  1.30100000E+01  1.96200000E+00  4.44600000E-01  1.22000000E-01  7.27000000E-01
  1.30100000E+01  1.96200000E+00  4.44600000E-01  1.22000000E-01  7.27000000E-01
  1.30100000E+01  1.96200000E+00  4.44600000E-01  1.22000000E-01  7.27000000E-01
  1.30100000E+01  1.96200000E+00  4.44600000E-01  1.22000000E-01  7.27000000E-01
  1.30100000E+01  1.96200000E+00  4.44600000E-01  1.22000000E-01  7.27000000E-01
  1.30100000E+01  1.96200000E+00  4.44600000E-01  1.22000000E-01  7.27000000E-01
  1.30100000E+01  1.96200000E+00  4.44600000E-01  1.22000000E-01  7.27000000E-01
  1.30100000E+01  1.96200000E+00  4.44600000E-01  1.22000000E-01  7.27000000E-01
  1.30100000E+01  1.96200000E+00  4.44600000E-01  1.22000000E-01  7.27000000E-01
  1.30100000E+01  1.96200000E+00  4.44600000E-01  1.22000000E-01  7.27000000E-01
Contraction coefficients                   R   N=         130
  6.93516317E-04  5.34150243E-03  2.71366714E-02  1.01992385E-01  2.75508636E-01
  4.51086433E-01  2.87565745E-01  6.28313219E-07 -5.48480000E-05 -3.63137064E-03
 -1.17983699E-02 -1.10909885E-01 -1.34742247E-01  1.10175849E+00  1.00000000E+00
  5.69792516E-02  3.13207212E-01  7.60376742E-01  1.00000000E+00  1.00000000E+00
  6.93516317E-04  5.34150243E-03  2.71366714E-02  1.01992385E-01  2.75508636E-01
  4.51086433E-01  2.87565745E-01  6.28313219E-07 -5.48480000E-05 -3.63137064E-03
 -1.17983699E-02 -1.10909885E-01 -1.34742247E-01  1.10175849E+00  1.00000000E+00
  5.69792516E-02  3.13207212E-01  7.60376742E-01  1.00000000E+00  1.00000000E+00
  6.93516317E-04  5.34150243E-03  2.71366714E-02  1.01992385E-01  2.75508636E-01
  4.51086433E-01  2.87565745E-01  6.28313219E-07 -5.48480000E-05 -3.63137064E-03
 -1.17983699E-02 -1.10909885E-01 -1.34742247E-01  1.10175849E+00  1.00000000E+00
  5.69792516E-02  3.13207212E-01  7.60376742E-01  1.00000000E+00  1.00000000E+00
  6.93516317E-04  5.34150243E-03  2.71366714E-02  1.01992385E-01  2.75508636E-01
  4.51086433E-01  2.87565745E-01  6.28313219E-07 -5.48480000E-05 -3.63137064E-03
 -1.17983699E-02 -1.10909885E-01 -1.34742247E-01  1.10175849E+00  1.00000000E+00
  5.69792516E-02  3.13207212E-01  7.60376742E-01  1.00000000E+00  1.00000000E+00
  3.34987264E-02  2.34800801E-01  8.13682958E-01  1.00000000E+00  1.00000000E+00
  3.34987264E-02  2.34800801E-01  8.13682958E-01  1.00000000E+00  1.00000000E+00
  3.34987264E-02  2.34800801E-01  8.13682958E-01  1.00000000E+00  1.00000000E+00
  3.34987264E-02  2.34800801E-01  8.13682958E-01  1.00000000E+00  1.00000000E+00
  3.34987264E-02  2.34800801E-01  8.13682958E-01  1.00000000E+00  1.00000000E+00
  3.34987264E-02  2.34800801E-01  8.13682958E-01  1.00000000E+00  1.00000000E+00
  3.34987264E-02  2.34800801E-01  8.13682958E-01  1.00000000E+00  1.00000000E+00
  3.34987264E-02  2.34800801E-01  8.13682958E-01  1.00000000E+00  1.00000000E+00
  3.34987264E-02  2.34800801E-01  8.13682958E-01  1.00000000E+00  1.00000000E+00
  3.34987264E-02  2.34800801E-01  8.13682958E-01  1.00000000E+00  1.00000000E+00
Coordinates of each shell                  R   N=         162
  7.94450811E-01 -3.62668445E+00  0.00000000E+00  7.94450811E-01 -3.62668445E+00
  0.00000000E+00  7.94450811E-01 -3.62668445E+00  0.00000000E+00  7.94450811E-01
 -3.62668445E+00  0.00000000E+00  7.94450811E-01 -3.62668445E+00  0.00000000E+00
  7.94450811E-01 -3.62668445E+00  0.00000000E+00 -7.94451013E-01 -1.21062463E+00
 -1.38777878E-17 -7.94451013E-01 -1.21062463E+00 -1.38777878E-17 -7.94451013E-01
 -1.21062463E+00 -1.38777878E-17 -7.94451013E-01 -1.21062463E+00 -1.38777878E-17
 -7.94451013E-01 -1.21062463E+00 -1.38777878E-17 -7.94451013E-01 -1.21062463E+00
 -1.38777878E-17  7.94451013E-01  1.21062463E+00  1.38777878E-17  7.94451013E-01
  1.21062463E+00  1.38777878E-17  7.94451013E-01  1.21062463E+00  1.38777878E-17
  7.94451013E-01  1.21062463E+00  1.38777878E-17  7.94451013E-01  1.21062463E+00
  1.38777878E-17  7.94451013E-01  1.21062463E+00  1.38777878E-17 -7.94450811E-01
  3.62668445E+00  8.32667268E-17 -7.94450811E-01  3.62668445E+00  8.32667268E-17
 -7.94450811E-01  3.62668445E+00  8.32667268E-17 -7.94450811E-01  3.62668445E+00
  8.32667268E-17 -7.94450811E-01  3.62668445E+00  8.32667268E-17 -7.94450811E-01
  3.62668445E+00  8.32667268E-17 -2.05489639E+00 -1.20267489E+00 -1.66746428E+00
 -2.05489639E+00 -1.20267489E+00 -1.66746428E+00 -2.05489639E+00 -1.20267489E+00
 -1.66746428E+00 -2.05489737E+00 -1.20267433E+00  1.66746264E+00 -2.05489737E+00
 -1.20267433E+00  1.66746264E+00 -2.05489737E+00 -1.20267433E+00  1.66746264E+00
  2.05489737E+00  1.20267433E+00  1.66746264E+00  2.05489737E+00  1.20267433E+00
  1.66746264E+00  2.05489737E+00  1.20267433E+00  1.66746264E+00  2.05489639E+00
  1.20267489E+00 -1.66746428E+00  2.05489639E+00  1.20267489E+00 -1.66746428E+00
  2.05489639E+00  1.20267489E+00 -1.66746428E+00  4.01732467E-01  5.33154496E+00
 -5.89805982E-17  4.01732467E-01  5.33154496E+00 -5.89805982E-17  4.01732467E-01
  5.33154496E+00 -5.89805982E-17 -2.02642570E+00  3.72174646E+00 -1.68004029E+00
 -2.02642570E+00  3.72174646E+00 -1.68004029E+00 -2.02642570E+00  3.72174646E+00
 -1.68004029E+00 -2.02642415E+00  3.72174631E+00  1.68004231E+00 -2.02642415E+00
  3.72174631E+00  1.68004231E+00 -2.02642415E+00  3.72174631E+00  1.68004231E+00
 -4.01732467E-01 -5.33154496E+00 -4.85722573E-17 -4.01732467E-01 -5.33154496E+00
 -4.85722573E-17 -4.01732467E-01 -5.33154496E+00 -4.85722573E-17  2.02642570E+00
 -3.72174646E+00 -1.68004029E+00  2.02642570E+00 -3.72174646E+00 -1.68004029E+00
  2.02642570E+00 -3.72174646E+00 -1.68004029E+00  2.02642415E+00 -3.72174631E+00
  1.68004231E+00  2.02642415E+00 -3.72174631E+00  1.68004231E+00  2.02642415E+00
 -3.72174631E+00  1.68004231E+00
Alpha Orbital Energies                     R   N=         106
 -1.01803094E+01 -1.01801412E+01 -1.01759350E+01 -1.01759274E+01 -7.90751325E-01
 -7.20674869E-01 -6.27105198E-01 -5.72000076E-01 -4.63524042E-01 -4.22557171E-01
 -4.16283648E-01 -4.06400088E-01 -3.65597333E-01 -3.46662628E-01 -3.32595826E-01
 -3.20700848E-01 -3.19387827E-01  6.10830803E-02  8.04420763E-02  9.54733290E-02
  1.00946983E-01  1.37586617E-01  1.40433869E-01  1.51212841E-01  1.53321839E-01
  1.60793160E-01  1.70176020E-01  2.26454886E-01  2.32801968E-01  2.49802014E-01
  4.02087373E-01  4.06156219E-01  4.09100956E-01  4.18318270E-01  4.50407061E-01
  5.07558823E-01  5.10053983E-01  5.83224500E-01  6.12180329E-01  6.34723012E-01
  6.43168632E-01  6.48234883E-01  6.52979621E-01  6.64196835E-01  6.69611829E-01
  6.69743649E-01  6.79563875E-01  6.99503011E-01  7.04501357E-01  7.24361676E-01
  7.40510985E-01  7.41986426E-01  8.97597395E-01  9.00331320E-01  9.60719580E-01
  1.07342698E+00  1.20365116E+00  1.22228318E+00  1.22382000E+00  1.22589369E+00
  1.28660579E+00  1.32684554E+00  1.42599524E+00  1.42632102E+00  1.43641387E+00
  1.49162981E+00  1.57388564E+00  1.60473558E+00  1.60818149E+00  1.62275257E+00
  1.62376373E+00  1.62473206E+00  1.64665690E+00  1.65804149E+00  1.69355650E+00
  1.70217639E+00  1.71064455E+00  1.71189940E+00  1.71261304E+00  1.74436374E+00
  1.74624354E+00  1.78155836E+00  1.87103352E+00  1.91637583E+00  1.91782885E+00
  1.95990505E+00  1.99348175E+00  2.09317109E+00  2.11716547E+00  2.13391942E+00
  2.18728218E+00  2.21648167E+00  2.21697027E+00  2.27215441E+00  2.28655585E+00
  2.31346830E+00  2.40431045E+00  2.41251727E+00  2.41727635E+00  2.46057476E+00
  2.48687652E+00  2.50740463E+00  2.58456474E+00  2.63377997E+00  2.70319151E+00
  2.71316898E+00
Alpha MO coefficients                      R   N=       11236
  1.27244274E-02 -2.21797148E-04  4.49002375E-03  1.50089978E-04 -4.05062415E-04
  3.08329752E-13 -7.87070082E-04  1.59400234E-03 -2.10307039E-10  2.48016661E-04
 -2.35908207E-10 -5.20008296E-11  3.22226828E-04  7.83245200E-04  7.04792917E-01
  2.17335558E-02 -1.22011489E-02 -8.09974154E-04 -1.73632810E-04  8.56084852E-10
 -1.42770277E-03  1.63712965E-03  1.39573818E-09  9.91148943E-04 -1.63107458E-09
  4.59909661E-10  7.00967643E-04 -5.61188957E-04  7.04792917E-01  2.17335558E-02
 -1.22011489E-02  8.09974154E-04  1.73632810E-04  8.56084852E-10  1.42770277E-03
 -1.63712965E-03  1.39573818E-09  9.91148943E-04  1.63107458E-09 -4.59909661E-10
  7.00967643E-04 -5.61188957E-04  1.27244274E-02 -2.21797148E-04  4.49002375E-03
 -1.50089978E-04  4.05062415E-04  3.08329752E-13  7.87070082E-04 -1.59400234E-03
 -2.10307039E-10  2.48016661E-04  2.35908207E-10  5.20008296E-11  3.22226828E-04
  7.83245200E-04 -1.13950600E-03  1.76280208E-03 -6.96543568E-04  8.67367911E-05
 -1.21430551E-03 -1.13951004E-03  1.76280184E-03 -6.96545533E-04  8.67367440E-05
  1.21430592E-03 -1.13951004E-03  1.76280184E-03  6.96545533E-04 -8.67367440E-05
  1.21430592E-03 -1.13950600E-03  1.76280208E-03  6.96543568E-04 -8.67367911E-05
 -1.21430551E-03 -5.16355674E-04  1.13972354E-04  3.61554535E-05  1.79914944E-04
 -5.11244939E-11 -3.90890751E-04 -3.73375496E-05  2.46049973E-05  3.59238191E-05
 -7.44146738E-05 -3.90890484E-04 -3.73370488E-05  2.46051951E-05  3.59232657E-05
  7.44147026E-05 -5.16355674E-04  1.13972354E-04 -3.61554535E-05 -1.79914944E-04
 -5.11244939E-11 -3.90890751E-04 -3.73375496E-05 -2.46049973E-05 -3.59238191E-05
 -7.44146738E-05 -3.90890484E-04 -3.73370488E-05 -2.46051951E-05 -3.59232657E-05
  7.44147026E-05  1.60813838E-02  4.14393561E-04  4.24676840E-03  1.19243028E-04
 -7.23477879E-06  8.26388640E-11 -1.20091935E-03  1.49004739E-03 -1.20686373E-09
  4.41057349E-04 -2.32660555E-12 -2.63511736E-10  1.43990770E-04  5.13628554E-04
  7.04762042E-01  2.26411808E-02 -2.16797778E-02 -4.34517684E-04  9.36939758E-05
  7.24126992E-10 -3.75008790E-03 -2.05373133E-03  2.52592703E-09  3.21323888E-04
 -1.12627577E-09  8.19875863E-11  2.84240850E-04  5.18344107E-04 -7.04762042E-01
 -2.26411808E-02  2.16797778E-02 -4.34517684E-04  9.36939758E-05 -7.24126992E-10
 -3.75008790E-03 -2.05373133E-03 -2.52592703E-09 -3.21323888E-04 -1.12627577E-09
  8.19875863E-11 -2.84240850E-04 -5.18344107E-04 -1.60813838E-02 -4.14393561E-04
 -4.24676840E-03  1.19243028E-04 -7.23477879E-06 -8.26388640E-11 -1.20091935E-03
  1.49004739E-03  1.20686373E-09 -4.41057349E-04 -2.32660555E-12 -2.63511736E-10
 -1.43990770E-04 -5.13628554E-04 -4.68448249E-04  1.24902365E-03 -7.53161714E-04
 -5.87233608E-05 -1.16415185E-03 -4.68452189E-04  1.24902357E-03 -7.53163579E-04
 -5.87227726E-05  1.16415213E-03  4.68452189E-04 -1.24902357E-03 -7.53163579E-04
 -5.87227726E-05 -1.16415213E-03  4.68448249E-04 -1.24902365E-03 -7.53161714E-04
 -5.87233608E-05  1.16415185E-03  4.16977061E-04  4.87608571E-04 -5.15860092E-06
 -1.77913227E-04 -1.69270750E-11  3.39081324E-04 -4.82741036E-04  3.01051182E-05
  1.28925829E-04  3.35878769E-05  3.39081203E-04 -4.82742430E-04  3.01048255E-05
  1.28926524E-04 -3.35882247E-05 -4.16977061E-04 -4.87608571E-04 -5.15860092E-06
 -1.77913227E-04  1.69270750E-11 -3.39081324E-04  4.82741036E-04  3.01051182E-05
  1.28925829E-04 -3.35878769E-05 -3.39081203E-04  4.82742430E-04  3.01048255E-05
  1.28926524E-04  3.35882247E-05  7.04701446E-01  2.22202471E-02 -1.50395291E-02
  3.78087916E-04 -4.64501121E-04 -6.30708191E-10  9.89406089E-04 -2.87334606E-03
 -1.68961939E-09  2.84844740E-04 -1.46882826E-09  4.28845549E-11  1.76962939E-04
  5.17373492E-04 -1.60098179E-02 -3.21022669E-04  2.95180636E-03 -2.47876076E-04
  3.68611377E-04 -1.28703263E-10  1.33700512E-03 -3.63965326E-03  7.17585757E-10
  5.49029457E-04  1.50064546E-10 -2.98078218E-11  2.10455151E-04  4.75695891E-04
  1.60098179E-02  3.21022669E-04 -2.95180636E-03 -2.47876076E-04  3.68611377E-04
  1.28703263E-10  1.33700512E-03 -3.63965326E-03 -7.17585757E-10 -5.49029457E-04
  1.50064546E-10 -2.98078218E-11 -2.10455151E-04 -4.75695891E-04 -7.04701446E-01
 -2.22202471E-02  1.50395291E-02  3.78087916E-04 -4.64501121E-04  6.30708191E-10
  9.89406089E-04 -2.87334606E-03  1.68961939E-09 -2.84844740E-04 -1.46882826E-09
  4.28845549E-11 -1.76962939E-04 -5.17373492E-04 -1.27391243E-04  3.94990758E-04
 -4.47877862E-05  1.36136247E-04  3.08209486E-05 -1.27390894E-04  3.94989935E-04
 -4.47879768E-05  1.36136666E-04 -3.08213447E-05  1.27390894E-04 -3.94989935E-04
 -4.47879768E-05  1.36136666E-04  3.08213447E-05  1.27391243E-04 -3.94990758E-04
 -4.47877862E-05  1.36136247E-04 -3.08209486E-05  9.64018513E-04 -8.73391546E-04
 -9.02043815E-04 -1.12368002E-03  1.79381961E-12  6.94768229E-04 -1.60235617E-03
  7.83399465E-04  9.42879502E-05  1.10205948E-03  6.94764659E-04 -1.60235637E-03
  7.83397355E-04  9.42880983E-05 -1.10205926E-03 -9.64018513E-04  8.73391546E-04
 -9.02043815E-04 -1.12368002E-03 -1.79381961E-12 -6.94768229E-04  1.60235617E-03
  7.83399465E-04  9.42879502E-05 -1.10205948E-03 -6.94764659E-04  1.60235637E-03
  7.83397355E-04  9.42880983E-05  1.10205926E-03  7.04689821E-01  2.16459103E-02
 -1.11380324E-02  3.57134560E-04 -4.60537199E-04 -7.00816687E-10  7.22012277E-05
 -1.02237243E-03 -1.04009490E-09  2.45918689E-04 -1.56912376E-09  7.16523201E-11
  1.98046657E-04  4.08330375E-04 -1.27544419E-02 -8.50668447E-04  2.84813557E-03
 -1.59440832E-04  6.35376896E-06 -6.50658653E-11 -3.22029969E-04  2.29583154E-04