Butano diedro spostato da usare per armonia - tors CH3                  
Freq      RB3LYP                                                      CC-pVDZ             
Number of atoms                            I               14
Charge                                     I                0
Multiplicity                               I                1
Number of electrons                        I               34
Number of alpha electrons                  I               17
Number of beta electrons                   I               17
Number of basis functions                  I              106
Number of independant functions            I              106
Number of point charges in /Mol/           I                0
Number of translation vectors              I                0
Number of symbols in /Mol/                 I                0
Info1-9                                    I   N=           9
          23          23        1001           0           0         100
           6          18        -501
Num ILSW                                   I              100
ILSW                                       I   N=         100
           0           0           0           0           2           0
           0           0           3           0         402      200000
           5           0           0           0           0           0
           0      800000           1           0           1           0
           1           0           0           0     1000000           0
           0           0           0           0          -1           0
           0           0           0           0           0           0
           0           0           0           1           0           0
           0           0           1      720000      810000           0
           0           0           0           0           0           0
           0           0           0           0           0           0
           0           0           0           0           0           0
           0           0           0           0           0           0
           0           0           0           0           0           0
           0           0           0           0           0           0
           0           0           0           0           0           0
           0           0           0           0
Number of contracted shells                I               54
Highest angular momentum                   I                2
Largest degree of contraction              I                7
Number of primitive shells                 I              130
Pure/Cartesian d shells                    I                0
Pure/Cartesian f shells                    I                0
Virial Ratio                               R      2.009398097352002E+00
SCF Energy                                 R     -1.584564419701997E+02
Total Energy                               R     -1.584564419701997E+02
RMS Force                                  R      1.047526941405230E-03
RMS Density                                R      1.644857566253128E-09
Atomic numbers                             I   N=          14
           6           6           6           6           1           1
           1           1           1           1           1           1
           1           1
Nuclear charges                            R   N=          14
  6.00000000E+00  6.00000000E+00  6.00000000E+00  6.00000000E+00  1.00000000E+00
  1.00000000E+00  1.00000000E+00  1.00000000E+00  1.00000000E+00  1.00000000E+00
  1.00000000E+00  1.00000000E+00  1.00000000E+00  1.00000000E+00
Current cartesian coordinates              R   N=          42
 -3.71836112E+00  2.19826479E-01  2.00905737E-02 -1.06983288E+00 -9.71948509E-01
 -3.93995608E-03  1.07791837E+00  9.72753962E-01 -1.18327828E-02  3.70930853E+00
 -2.25410999E-01  1.12625339E-02 -8.47442213E-01 -2.26257851E+00  1.62285787E+00
 -8.64259008E-01 -2.16976593E+00 -1.70406063E+00  8.75918935E-01  2.19199828E+00
 -1.69651705E+00  8.73763383E-01  2.24088777E+00  1.63819390E+00  5.20989373E+00
  1.21843602E+00 -2.07812867E-02  3.99490109E+00 -1.39274690E+00  1.71561407E+00
  3.99026058E+00 -1.46324779E+00 -1.64371265E+00 -5.11956561E+00 -9.83625528E-01
 -9.40465879E-01 -4.39234886E+00  6.17088894E-01  1.94992079E+00 -3.71531947E+00
  2.03222808E+00 -1.01453135E+00
Atom Types                                 C   N=          14
                                                            
                                                            
                                                
Int Atom Types                             I   N=          14
           0           0           0           0           0           0
           0           0           0           0           0           0
           0           0
Force Field                                I                0
MM charges                                 R   N=          14
  0.00000000E+00  0.00000000E+00  0.00000000E+00  0.00000000E+00  0.00000000E+00
  0.00000000E+00  0.00000000E+00  0.00000000E+00  0.00000000E+00  0.00000000E+00
  0.00000000E+00  0.00000000E+00  0.00000000E+00  0.00000000E+00
Integer atomic weights                     I   N=          14
          12          12          12          12           1           1
           1           1           1           1           1           1
           1           1
Real atomic weights                        R   N=          14
  1.20000000E+01  1.20000000E+01  1.20000000E+01  1.20000000E+01  1.00782504E+00
  1.00782504E+00  1.00782504E+00  1.00782504E+00  1.00782504E+00  1.00782504E+00
  1.00782504E+00  1.00782504E+00  1.00782504E+00  1.00782504E+00
Atom residue info                          I   N=          14
           0           0           0           0           0           0
           0           0           0           0           0           0
           0           0
Atom fragment info                         I   N=          14
           0           0           0           0           0           0
           0           0           0           0           0           0
           0           0
Atom residue num                           I   N=          14
           0           0           0           0           0           0
           0           0           0           0           0           0
           0           0
Nuclear spins                              I   N=          14
           0           0           0           0           1           1
           1           1           1           1           1           1
           1           1
Nuclear ZEff                               R   N=          14
 -3.60000000E+00 -3.60000000E+00 -3.60000000E+00 -3.60000000E+00 -1.00000000E+00
 -1.00000000E+00 -1.00000000E+00 -1.00000000E+00 -1.00000000E+00 -1.00000000E+00
 -1.00000000E+00 -1.00000000E+00 -1.00000000E+00 -1.00000000E+00
Nuclear QMom                               R   N=          14
  0.00000000E+00  0.00000000E+00  0.00000000E+00  0.00000000E+00  0.00000000E+00
  0.00000000E+00  0.00000000E+00  0.00000000E+00  0.00000000E+00  0.00000000E+00
  0.00000000E+00  0.00000000E+00  0.00000000E+00  0.00000000E+00
Nuclear GFac                               R   N=          14
  0.00000000E+00  0.00000000E+00  0.00000000E+00  0.00000000E+00  2.79284600E+00
  2.79284600E+00  2.79284600E+00  2.79284600E+00  2.79284600E+00  2.79284600E+00
  2.79284600E+00  2.79284600E+00  2.79284600E+00  2.79284600E+00
MicOpt                                     I   N=          14
          -1          -1          -1          -1          -1          -1
          -1          -1          -1          -1          -1          -1
          -1          -1
Constraint Structure                       R   N=          42
 -3.71836112E+00  2.19826479E-01  2.00905737E-02 -1.06983288E+00 -9.71948509E-01
 -3.93995608E-03  1.07791837E+00  9.72753962E-01 -1.18327828E-02  3.70930853E+00
 -2.25410999E-01  1.12625339E-02 -8.47442213E-01 -2.26257851E+00  1.62285787E+00
 -8.64259008E-01 -2.16976593E+00 -1.70406063E+00  8.75918935E-01  2.19199828E+00
 -1.69651705E+00  8.73763383E-01  2.24088777E+00  1.63819390E+00  5.20989373E+00
  1.21843602E+00 -2.07812867E-02  3.99490109E+00 -1.39274690E+00  1.71561407E+00
  3.99026058E+00 -1.46324779E+00 -1.64371265E+00 -5.11956561E+00 -9.83625528E-01
 -9.40465879E-01 -4.39234886E+00  6.17088894E-01  1.94992079E+00 -3.71531947E+00
  2.03222808E+00 -1.01453135E+00
ONIOM Charges                              I   N=          16
           0           0           0           0           0           0
           0           0           0           0           0           0
           0           0           0           0
ONIOM Multiplicities                       I   N=          16
           1           0           0           0           0           0
           0           0           0           0           0           0
           0           0           0           0
Atom Layers                                I   N=          14
           0           0           0           0           0           0
           0           0           0           0           0           0
           0           0
Atom Modifiers                             I   N=          14
           0           0           0           0           0           0
           0           0           0           0           0           0
           0           0
Atom Modified Types                        C   N=          14
                                                            
                                                            
                                                
Int Atom Modified Types                    I   N=          14
           0           0           0           0           0           0
           0           0           0           0           0           0
           0           0
Link Atoms                                 I   N=          14
           0           0           0           0           0           0
           0           0           0           0           0           0
           0           0
Atom Modified MM Charges                   R   N=          14
  0.00000000E+00  0.00000000E+00  0.00000000E+00  0.00000000E+00  0.00000000E+00
  0.00000000E+00  0.00000000E+00  0.00000000E+00  0.00000000E+00  0.00000000E+00
  0.00000000E+00  0.00000000E+00  0.00000000E+00  0.00000000E+00
Link Distances                             R   N=          56
  0.00000000E+00  0.00000000E+00  0.00000000E+00  0.00000000E+00  0.00000000E+00
  0.00000000E+00  0.00000000E+00  0.00000000E+00  0.00000000E+00  0.00000000E+00
  0.00000000E+00  0.00000000E+00  0.00000000E+00  0.00000000E+00  0.00000000E+00
  0.00000000E+00  0.00000000E+00  0.00000000E+00  0.00000000E+00  0.00000000E+00
  0.00000000E+00  0.00000000E+00  0.00000000E+00  0.00000000E+00  0.00000000E+00
  0.00000000E+00  0.00000000E+00  0.00000000E+00  0.00000000E+00  0.00000000E+00
  0.00000000E+00  0.00000000E+00  0.00000000E+00  0.00000000E+00  0.00000000E+00
  0.00000000E+00  0.00000000E+00  0.00000000E+00  0.00000000E+00  0.00000000E+00
  0.00000000E+00  0.00000000E+00  0.00000000E+00  0.00000000E+00  0.00000000E+00
  0.00000000E+00  0.00000000E+00  0.00000000E+00  0.00000000E+00  0.00000000E+00
  0.00000000E+00  0.00000000E+00  0.00000000E+00  0.00000000E+00  0.00000000E+00
  0.00000000E+00
MxBond                                     I                4
NBond                                      I   N=          14
           4           4           4           4           1           1
           1           1           1           1           1           1
           1           1
IBond                                      I   N=          56
           2          12          13          14           1           3
           5           6           2           4           7           8
           3           9          10          11           2           0
           0           0           2           0           0           0
           3           0           0           0           3           0
           0           0           4           0           0           0
           4           0           0           0           4           0
           0           0           1           0           0           0
           1           0           0           0           1           0
           0           0
RBond                                      R   N=          56
  1.00000000E+00  1.00000000E+00  1.00000000E+00  1.00000000E+00  1.00000000E+00
  1.00000000E+00  1.00000000E+00  1.00000000E+00  1.00000000E+00  1.00000000E+00
  1.00000000E+00  1.00000000E+00  1.00000000E+00  1.00000000E+00  1.00000000E+00
  1.00000000E+00  1.00000000E+00  0.00000000E+00  0.00000000E+00  0.00000000E+00
  1.00000000E+00  0.00000000E+00  0.00000000E+00  0.00000000E+00  1.00000000E+00
  0.00000000E+00  0.00000000E+00  0.00000000E+00  1.00000000E+00  0.00000000E+00
  0.00000000E+00  0.00000000E+00  1.00000000E+00  0.00000000E+00  0.00000000E+00
  0.00000000E+00  1.00000000E+00  0.00000000E+00  0.00000000E+00  0.00000000E+00
  1.00000000E+00  0.00000000E+00  0.00000000E+00  0.00000000E+00  1.00000000E+00
  0.00000000E+00  0.00000000E+00  0.00000000E+00  1.00000000E+00  0.00000000E+00
  0.00000000E+00  0.00000000E+00  1.00000000E+00  0.00000000E+00  0.00000000E+00
  0.00000000E+00
Shell types                                I   N=          54
           0           0           0           1           1          -2
           0           0           0           1           1          -2
           0           0           0           1           1          -2
           0           0           0           1           1          -2
           0           0           1           0           0           1
           0           0           1           0           0           1
           0           0           1           0           0           1
           0           0           1           0           0           1
           0           0           1           0           0           1
Number of primitives per shell             I   N=          54
           7           7           1           3           1           1
           7           7           1           3           1           1
           7           7           1           3           1           1
           7           7           1           3           1           1
           3           1           1           3           1           1
           3           1           1           3           1           1
           3           1           1           3           1           1
           3           1           1           3           1           1
           3           1           1           3           1           1
Shell to atom map                          I   N=          54
           1           1           1           1           1           1
           2           2           2           2           2           2
           3           3           3           3           3           3
           4           4           4           4           4           4
           5           5           5           6           6           6
           7           7           7           8           8           8
           9           9           9          10          10          10
          11          11          11          12          12          12
          13          13          13          14          14          14
Primitive exponents                        R   N=         130
  6.66500000E+03  1.00000000E+03  2.28000000E+02  6.47100000E+01  2.10600000E+01
  7.49500000E+00  2.79700000E+00  6.66500000E+03  1.00000000E+03  6.47100000E+01
  2.10600000E+01  7.49500000E+00  2.79700000E+00  5.21500000E-01  1.59600000E-01
  9.43900000E+00  2.00200000E+00  5.45600000E-01  1.51700000E-01  5.50000000E-01
  6.66500000E+03  1.00000000E+03  2.28000000E+02  6.47100000E+01  2.10600000E+01
  7.49500000E+00  2.79700000E+00  6.66500000E+03  1.00000000E+03  6.47100000E+01
  2.10600000E+01  7.49500000E+00  2.79700000E+00  5.21500000E-01  1.59600000E-01
  9.43900000E+00  2.00200000E+00  5.45600000E-01  1.51700000E-01  5.50000000E-01
  6.66500000E+03  1.00000000E+03  2.28000000E+02  6.47100000E+01  2.10600000E+01
  7.49500000E+00  2.79700000E+00  6.66500000E+03  1.00000000E+03  6.47100000E+01
  2.10600000E+01  7.49500000E+00  2.79700000E+00  5.21500000E-01  1.59600000E-01
  9.43900000E+00  2.00200000E+00  5.45600000E-01  1.51700000E-01  5.50000000E-01
  6.66500000E+03  1.00000000E+03  2.28000000E+02  6.47100000E+01  2.10600000E+01
  7.49500000E+00  2.79700000E+00  6.66500000E+03  1.00000000E+03  6.47100000E+01
  2.10600000E+01  7.49500000E+00  2.79700000E+00  5.21500000E-01  1.59600000E-01
  9.43900000E+00  2.00200000E+00  5.45600000E-01  1.51700000E-01  5.50000000E-01
  1.30100000E+01  1.96200000E+00  4.44600000E-01  1.22000000E-01  7.27000000E-01
  1.30100000E+01  1.96200000E+00  4.44600000E-01  1.22000000E-01  7.27000000E-01
  1.30100000E+01  1.96200000E+00  4.44600000E-01  1.22000000E-01  7.27000000E-01
  1.30100000E+01  1.96200000E+00  4.44600000E-01  1.22000000E-01  7.27000000E-01
  1.30100000E+01  1.96200000E+00  4.44600000E-01  1.22000000E-01  7.27000000E-01
  1.30100000E+01  1.96200000E+00  4.44600000E-01  1.22000000E-01  7.27000000E-01
  1.30100000E+01  1.96200000E+00  4.44600000E-01  1.22000000E-01  7.27000000E-01
  1.30100000E+01  1.96200000E+00  4.44600000E-01  1.22000000E-01  7.27000000E-01
  1.30100000E+01  1.96200000E+00  4.44600000E-01  1.22000000E-01  7.27000000E-01
  1.30100000E+01  1.96200000E+00  4.44600000E-01  1.22000000E-01  7.27000000E-01
Contraction coefficients                   R   N=         130
  6.93516317E-04  5.34150243E-03  2.71366714E-02  1.01992385E-01  2.75508636E-01
  4.51086433E-01  2.87565745E-01  6.28313219E-07 -5.48480000E-05 -3.63137064E-03
 -1.17983699E-02 -1.10909885E-01 -1.34742247E-01  1.10175849E+00  1.00000000E+00
  5.69792516E-02  3.13207212E-01  7.60376742E-01  1.00000000E+00  1.00000000E+00
  6.93516317E-04  5.34150243E-03  2.71366714E-02  1.01992385E-01  2.75508636E-01
  4.51086433E-01  2.87565745E-01  6.28313219E-07 -5.48480000E-05 -3.63137064E-03
 -1.17983699E-02 -1.10909885E-01 -1.34742247E-01  1.10175849E+00  1.00000000E+00
  5.69792516E-02  3.13207212E-01  7.60376742E-01  1.00000000E+00  1.00000000E+00
  6.93516317E-04  5.34150243E-03  2.71366714E-02  1.01992385E-01  2.75508636E-01
  4.51086433E-01  2.87565745E-01  6.28313219E-07 -5.48480000E-05 -3.63137064E-03
 -1.17983699E-02 -1.10909885E-01 -1.34742247E-01  1.10175849E+00  1.00000000E+00
  5.69792516E-02  3.13207212E-01  7.60376742E-01  1.00000000E+00  1.00000000E+00
  6.93516317E-04  5.34150243E-03  2.71366714E-02  1.01992385E-01  2.75508636E-01
  4.51086433E-01  2.87565745E-01  6.28313219E-07 -5.48480000E-05 -3.63137064E-03
 -1.17983699E-02 -1.10909885E-01 -1.34742247E-01  1.10175849E+00  1.00000000E+00
  5.69792516E-02  3.13207212E-01  7.60376742E-01  1.00000000E+00  1.00000000E+00
  3.34987264E-02  2.34800801E-01  8.13682958E-01  1.00000000E+00  1.00000000E+00
  3.34987264E-02  2.34800801E-01  8.13682958E-01  1.00000000E+00  1.00000000E+00
  3.34987264E-02  2.34800801E-01  8.13682958E-01  1.00000000E+00  1.00000000E+00
  3.34987264E-02  2.34800801E-01  8.13682958E-01  1.00000000E+00  1.00000000E+00
  3.34987264E-02  2.34800801E-01  8.13682958E-01  1.00000000E+00  1.00000000E+00
  3.34987264E-02  2.34800801E-01  8.13682958E-01  1.00000000E+00  1.00000000E+00
  3.34987264E-02  2.34800801E-01  8.13682958E-01  1.00000000E+00  1.00000000E+00
  3.34987264E-02  2.34800801E-01  8.13682958E-01  1.00000000E+00  1.00000000E+00
  3.34987264E-02  2.34800801E-01  8.13682958E-01  1.00000000E+00  1.00000000E+00
  3.34987264E-02  2.34800801E-01  8.13682958E-01  1.00000000E+00  1.00000000E+00
Coordinates of each shell                  R   N=         162
 -3.71836112E+00  2.19826479E-01  2.00905737E-02 -3.71836112E+00  2.19826479E-01
  2.00905737E-02 -3.71836112E+00  2.19826479E-01  2.00905737E-02 -3.71836112E+00
  2.19826479E-01  2.00905737E-02 -3.71836112E+00  2.19826479E-01  2.00905737E-02
 -3.71836112E+00  2.19826479E-01  2.00905737E-02 -1.06983288E+00 -9.71948509E-01
 -3.93995608E-03 -1.06983288E+00 -9.71948509E-01 -3.93995608E-03 -1.06983288E+00
 -9.71948509E-01 -3.93995608E-03 -1.06983288E+00 -9.71948509E-01 -3.93995608E-03
 -1.06983288E+00 -9.71948509E-01 -3.93995608E-03 -1.06983288E+00 -9.71948509E-01
 -3.93995608E-03  1.07791837E+00  9.72753962E-01 -1.18327828E-02  1.07791837E+00
  9.72753962E-01 -1.18327828E-02  1.07791837E+00  9.72753962E-01 -1.18327828E-02
  1.07791837E+00  9.72753962E-01 -1.18327828E-02  1.07791837E+00  9.72753962E-01
 -1.18327828E-02  1.07791837E+00  9.72753962E-01 -1.18327828E-02  3.70930853E+00
 -2.25410999E-01  1.12625339E-02  3.70930853E+00 -2.25410999E-01  1.12625339E-02
  3.70930853E+00 -2.25410999E-01  1.12625339E-02  3.70930853E+00 -2.25410999E-01
  1.12625339E-02  3.70930853E+00 -2.25410999E-01  1.12625339E-02  3.70930853E+00
 -2.25410999E-01  1.12625339E-02 -8.47442213E-01 -2.26257851E+00  1.62285787E+00
 -8.47442213E-01 -2.26257851E+00  1.62285787E+00 -8.47442213E-01 -2.26257851E+00
  1.62285787E+00 -8.64259008E-01 -2.16976593E+00 -1.70406063E+00 -8.64259008E-01
 -2.16976593E+00 -1.70406063E+00 -8.64259008E-01 -2.16976593E+00 -1.70406063E+00
  8.75918935E-01  2.19199828E+00 -1.69651705E+00  8.75918935E-01  2.19199828E+00
 -1.69651705E+00  8.75918935E-01  2.19199828E+00 -1.69651705E+00  8.73763383E-01
  2.24088777E+00  1.63819390E+00  8.73763383E-01  2.24088777E+00  1.63819390E+00
  8.73763383E-01  2.24088777E+00  1.63819390E+00  5.20989373E+00  1.21843602E+00
 -2.07812867E-02  5.20989373E+00  1.21843602E+00 -2.07812867E-02  5.20989373E+00
  1.21843602E+00 -2.07812867E-02  3.99490109E+00 -1.39274690E+00  1.71561407E+00
  3.99490109E+00 -1.39274690E+00  1.71561407E+00  3.99490109E+00 -1.39274690E+00
  1.71561407E+00  3.99026058E+00 -1.46324779E+00 -1.64371265E+00  3.99026058E+00
 -1.46324779E+00 -1.64371265E+00  3.99026058E+00 -1.46324779E+00 -1.64371265E+00
 -5.11956561E+00 -9.83625528E-01 -9.40465879E-01 -5.11956561E+00 -9.83625528E-01
 -9.40465879E-01 -5.11956561E+00 -9.83625528E-01 -9.40465879E-01 -4.39234886E+00
  6.17088894E-01  1.94992079E+00 -4.39234886E+00  6.17088894E-01  1.94992079E+00
 -4.39234886E+00  6.17088894E-01  1.94992079E+00 -3.71531947E+00  2.03222808E+00
 -1.01453135E+00 -3.71531947E+00  2.03222808E+00 -1.01453135E+00 -3.71531947E+00
  2.03222808E+00 -1.01453135E+00
Alpha Orbital Energies                     R   N=         106
 -1.01804268E+01 -1.01800876E+01 -1.01758438E+01 -1.01757019E+01 -7.90042558E-01
 -7.19913967E-01 -6.27419753E-01 -5.72346789E-01 -4.62862369E-01 -4.21211274E-01
 -4.16137329E-01 -4.07706199E-01 -3.63482754E-01 -3.48137035E-01 -3.32791344E-01
 -3.21002316E-01 -3.16862140E-01  6.11370069E-02  8.01904223E-02  9.60644058E-02
  1.00200788E-01  1.31128810E-01  1.39216210E-01  1.46453057E-01  1.49961553E-01
  1.63129000E-01  1.84354416E-01  2.28034190E-01  2.33524388E-01  2.56909904E-01
  4.03164938E-01  4.06476124E-01  4.13328962E-01  4.20969180E-01  4.54862406E-01
  5.09973033E-01  5.22552284E-01  5.82383442E-01  6.08997867E-01  6.32651555E-01
  6.43907737E-01  6.45667200E-01  6.50042699E-01  6.61717725E-01  6.64407792E-01
  6.68495932E-01  6.73916356E-01  6.85734155E-01  6.97869456E-01  7.17684255E-01
  7.34445676E-01  7.50928724E-01  8.88630775E-01  8.91826006E-01  9.62034984E-01
  1.08571203E+00  1.18998701E+00  1.21231233E+00  1.22438317E+00  1.22987800E+00
  1.29784289E+00  1.33807236E+00  1.41645979E+00  1.42628942E+00  1.44286807E+00
  1.49232617E+00  1.56086357E+00  1.56519399E+00  1.60029058E+00  1.61853846E+00
  1.62650236E+00  1.63571418E+00  1.65168801E+00  1.66076566E+00  1.68529944E+00
  1.69787239E+00  1.70571811E+00  1.72393616E+00  1.73219302E+00  1.75330824E+00
  1.78886510E+00  1.79870031E+00  1.86934784E+00  1.87796940E+00  1.94238356E+00
  1.97592597E+00  2.00594409E+00  2.08573290E+00  2.10033695E+00  2.12467769E+00
  2.15724050E+00  2.20484149E+00  2.22225666E+00  2.27783290E+00  2.31128483E+00
  2.32701015E+00  2.40407665E+00  2.40865421E+00  2.41679194E+00  2.45474665E+00
  2.47765220E+00  2.51668420E+00  2.56623867E+00  2.62337561E+00  2.68174341E+00
  2.71938643E+00
Alpha MO coefficients                      R   N=       11236
  2.73866537E-03 -3.82466315E-04  1.68861685E-03 -3.12001902E-04  6.86443799E-05
 -5.81255188E-05  5.01644129E-04 -7.49543992E-05  4.93142011E-05 -1.31380736E-05
  4.82429224E-05 -3.33021745E-05 -3.58662344E-04  2.94011555E-04  2.54476413E-01
  7.39682170E-03  3.34721693E-04 -1.13753864E-04 -5.03894497E-04 -1.08524696E-05
  2.26427686E-03  9.88302375E-04  5.13592768E-05  6.90281927E-04  4.61483796E-05
 -2.51534557E-05 -2.29877578E-04 -8.71594323E-04  9.63704196E-01  3.01523358E-02
 -2.13981262E-02 -3.13556870E-05  9.12563706E-04 -1.24705692E-05 -1.05537173E-03
  3.09247488E-03  1.01244744E-05  1.01973215E-03  7.83841245E-06  3.22186090E-05
 -6.52403467E-04 -4.34615015E-04  1.79362274E-02 -3.63085008E-05  6.19247114E-03
  3.74035453E-04 -1.31117544E-04  2.02944947E-06 -2.37848472E-03  9.82664429E-04
 -3.90054395E-05  4.31477659E-04 -1.27387005E-05 -3.96973661E-07 -6.14763455E-04
  7.79127582E-04 -7.83471803E-04  8.71034665E-04  1.18653592E-04 -2.28397992E-04
  4.63692270E-04 -7.18276509E-04  9.17410912E-04  1.71344064E-04 -1.64660636E-04
 -4.71921210E-04 -1.23066699E-03  2.16654138E-03 -1.86043609E-04  9.30179638E-04
 -1.64974341E-03 -1.25102159E-03  2.06485259E-03 -1.85973215E-04  9.90900764E-04
  1.63633518E-03 -6.63041776E-04 -1.36391723E-04  2.35034892E-04  6.84777461E-05
 -5.16764588E-07 -5.16275053E-04  2.36404244E-04 -3.28277499E-05  3.76435601E-06
  7.79637025E-05 -5.08142721E-04  1.95147342E-04 -3.44254939E-05 -9.88611402E-08
 -7.92452654E-05 -1.90949923E-04  1.87887512E-04 -3.76300199E-05  4.07915004E-06
 -4.67482739E-05 -7.43935395E-05 -1.96629339E-04 -7.42322734E-05 -2.43902918E-05
 -3.57126292E-05 -2.49369247E-04 -2.72627043E-04 -4.86557425E-06  3.66755641E-05
 -9.20358734E-05  1.86408121E-02  1.44466209E-04  6.20882402E-03 -2.32928597E-04
  1.12286103E-04  3.14979156E-05  2.52469873E-03 -5.62384036E-04 -7.12817396E-04
  5.78083510E-04  5.02017714E-05  5.74680869E-05 -5.26115847E-04  6.91071319E-04
  9.63712087E-01  3.05225584E-02 -2.50675890E-02  1.36156724E-04 -7.77425539E-04
 -5.43701559E-05 -4.67701983E-04 -4.27464503E-03  4.36284426E-04  7.73528280E-04
 -3.32934191E-05 -5.58225348E-05 -6.01464779E-04 -2.24087461E-05 -2.54442301E-01
 -8.62981615E-03  1.27186536E-02  1.54047534E-04  5.45559754E-05  1.58079048E-05
 -2.26017354E-03 -3.01154658E-03 -8.26739720E-05  2.21301139E-04 -8.30123580E-06
  1.26254826E-05  1.21914748E-04 -7.11210159E-04 -7.18842328E-03 -4.61804989E-04
 -1.40966418E-03  1.90203691E-04  5.97399240E-05 -6.29546832E-06  5.82844736E-04
 -5.62980680E-04  7.46348889E-05 -2.59089749E-04 -6.04544718E-06  4.80338335E-06
 -1.97387028E-05 -5.95511826E-05 -1.05918274E-03  1.76332489E-03  1.80918849E-04
 -1.03872646E-03  1.58706642E-03 -8.86171710E-04  2.10645727E-03  1.43582457E-04
 -9.19868061E-04 -1.64326493E-03 -1.91443521E-04 -9.16157940E-05 -6.78232923E-05
 -3.18550637E-04  4.16237730E-04 -1.60608818E-04 -1.48333049E-04 -3.05339010E-05
 -3.05199752E-04 -3.87901137E-04  1.03189608E-04  4.82541287E-04 -6.73399313E-05
  6.59393343E-06 -7.76495138E-06  8.94991129E-05 -4.56243110E-04  1.23763183E-04
  5.69512647E-05  4.10271512E-06  1.00581875E-04 -4.32619741E-04  1.23378497E-04
  5.64536807E-05 -1.51811271E-05 -6.44713125E-04 -1.85910825E-04 -2.32370191E-04
 -7.64966493E-05  6.38126791E-06 -5.24099602E-04  7.03847837E-04 -3.56835601E-06
 -1.37977924E-05  7.78921924E-05 -5.74725400E-04 -2.76188983E-04  6.21428808E-05
  8.17030755E-05 -4.51672288E-05 -2.53230047E-02 -1.17007946E-03  3.10371442E-03
  2.71415254E-05 -2.00938375E-05 -3.24935140E-06  1.38303997E-03 -5.75106063E-04
  1.14760791E-04 -5.08075797E-05 -3.48557626E-06 -9.88349120E-06  2.39683042E-05
 -8.97871476E-05  2.77121549E-03 -3.63870629E-04 -9.83868169E-05 -2.74051369E-04
  2.72718537E-05  6.61213676E-06  2.96121110E-03 -7.07462495E-04 -1.00917966E-04
 -1.69180692E-04  7.36807780E-06 -9.68242222E-06 -5.53241647E-05 -1.20784700E-05
 -1.91965651E-02 -7.87642603E-04  4.05033881E-03 -3.08220459E-04  2.43928728E-04
 -3.63875145E-06  2.49558974E-03 -2.96288337E-04  4.26340111E-05  6.28700938E-04
 -1.46489902E-05  2.38579003E-06 -5.53929073E-04  5.61819165E-04  9.96291368E-01
  3.10119710E-02 -1.84966400E-02  7.24948561E-04 -4.13797823E-04  7.07120110E-06
  2.83308682E-03 -3.06337073E-04  6.79591575E-06  3.74843657E-04 -9.38660501E-06
 -2.16461009E-07 -4.50275580E-04  5.43879739E-04 -2.09135309E-04 -2.78561634E-04
 -2.18723035E-04  7.17070974E-05  7.39634524E-05 -1.98949557E-04 -3.88689083E-04
 -2.25253637E-04  6.76443670E-05 -6.07110521E-05 -3.90937027E-04  2.29487586E-04
  2.07516063E-05 -3.65212428E-05 -2.80830819E-05 -3.85526877E-04  1.92099994E-04
  2.31939433E-05 -3.69440823E-05  2.92156109E-05 -1.47320464E-03  1.54525723E-03
  1.36545202E-03  1.47223172E-03 -3.29483848E-05 -1.14313726E-03  2.28372018E-03
  7.77655670E-05 -1.09557084E-03  1.59418166E-03 -1.13637097E-03  2.28066328E-03
  7.59513510E-05 -1.15911256E-03 -1.54682412E-03 -7.48015989E-05  2.03313401E-04
  3.37705242E-05  5.85283425E-05  3.38849688E-05 -1.07241861E-04 -5.74003054E-05
 -3.09799877E-05  2.09382903E-07 -4.70922289E-05 -9.85989130E-05  7.17385986E-05
 -1.46567544E-05 -2.62631232E-05  2.14180442E-05  9.96293848E-01  3.09228689E-02
 -1.82437809E-02 -7.66111958E-04  4.22467670E-04 -1.99239872E-05 -2.55317051E-03
  5.63084317E-04 -1.86740983E-04  4.76761094E-04  3.34700704E-05  9.48070612E-05
 -4.06664177E-04  5.06083810E-04 -1.86393378E-02 -7.98079250E-04  4.00543730E-03
  2.90668026E-04 -2.39639471E-04 -3.36210451E-07 -2.47869065E-03  2.57889286E-04