Butano diedro spostato da usare per armonia - tors CH3                  
Freq      RB3LYP                                                      CC-pVDZ             
Number of atoms                            I               14
Charge                                     I                0
Multiplicity                               I                1
Number of electrons                        I               34
Number of alpha electrons                  I               17
Number of beta electrons                   I               17
Number of basis functions                  I              106
Number of independant functions            I              106
Number of point charges in /Mol/           I                0
Number of translation vectors              I                0
Number of symbols in /Mol/                 I                0
Info1-9                                    I   N=           9
          24          24        1001           0           0         100
           6          18        -501
Num ILSW                                   I              100
ILSW                                       I   N=         100
           0           0           0           0           2           0
           0           0           3           0         402      200000
           5           0           0           0           0           0
           0      800000           1           0           1           0
           1           0           0           0     1000000           0
           0           0           0           0          -1           0
           0           0           0           0           0           0
           0           0           0           1           0           0
           0           0           1      720000      810000           0
           0           0           0           0           0           0
           0           0           0           0           0           0
           0           0           0           0           0           0
           0           0           0           0           0           0
           0           0           0           0           0           0
           0           0           0           0           0           0
           0           0           0           0           0           0
           0           0           0           0
Number of contracted shells                I               54
Highest angular momentum                   I                2
Largest degree of contraction              I                7
Number of primitive shells                 I              130
Pure/Cartesian d shells                    I                0
Pure/Cartesian f shells                    I                0
Virial Ratio                               R      2.009397910167518E+00
SCF Energy                                 R     -1.584563889427355E+02
Total Energy                               R     -1.584563889427355E+02
RMS Force                                  R      1.226487890175557E-03
RMS Density                                R      1.765844318274920E-09
Atomic numbers                             I   N=          14
           6           6           6           6           1           1
           1           1           1           1           1           1
           1           1
Nuclear charges                            R   N=          14
  6.00000000E+00  6.00000000E+00  6.00000000E+00  6.00000000E+00  1.00000000E+00
  1.00000000E+00  1.00000000E+00  1.00000000E+00  1.00000000E+00  1.00000000E+00
  1.00000000E+00  1.00000000E+00  1.00000000E+00  1.00000000E+00
Current cartesian coordinates              R   N=          42
  3.71670271E+00  2.30510801E-01  1.35559513E-02  1.07018905E+00 -9.66727037E-01
 -1.30607276E-02 -1.08172929E+00  9.74041329E-01 -5.19408700E-03 -3.71091426E+00
 -2.28561512E-01  1.16010408E-02  8.61328655E-01 -2.15397508E+00 -1.72027058E+00
  8.57349417E-01 -2.26640551E+00  1.60714309E+00 -8.77987111E-01  2.23128285E+00
  1.65308234E+00 -8.83221635E-01  2.20497215E+00 -1.68185869E+00 -5.21412330E+00
  1.21280352E+00 -9.96299205E-03 -3.99063250E+00 -1.45585107E+00 -1.65146241E+00
 -3.99352062E+00 -1.40782151E+00  1.70819262E+00  4.41288720E+00  5.30653677E-01
  1.95457863E+00  5.11400701E+00 -1.00786978E+00 -9.11572943E-01  3.74842364E+00
  2.05662926E+00 -9.89282137E-01
Atom Types                                 C   N=          14
                                                            
                                                            
                                                
Int Atom Types                             I   N=          14
           0           0           0           0           0           0
           0           0           0           0           0           0
           0           0
Force Field                                I                0
MM charges                                 R   N=          14
  0.00000000E+00  0.00000000E+00  0.00000000E+00  0.00000000E+00  0.00000000E+00
  0.00000000E+00  0.00000000E+00  0.00000000E+00  0.00000000E+00  0.00000000E+00
  0.00000000E+00  0.00000000E+00  0.00000000E+00  0.00000000E+00
Integer atomic weights                     I   N=          14
          12          12          12          12           1           1
           1           1           1           1           1           1
           1           1
Real atomic weights                        R   N=          14
  1.20000000E+01  1.20000000E+01  1.20000000E+01  1.20000000E+01  1.00782504E+00
  1.00782504E+00  1.00782504E+00  1.00782504E+00  1.00782504E+00  1.00782504E+00
  1.00782504E+00  1.00782504E+00  1.00782504E+00  1.00782504E+00
Atom residue info                          I   N=          14
           0           0           0           0           0           0
           0           0           0           0           0           0
           0           0
Atom fragment info                         I   N=          14
           0           0           0           0           0           0
           0           0           0           0           0           0
           0           0
Atom residue num                           I   N=          14
           0           0           0           0           0           0
           0           0           0           0           0           0
           0           0
Nuclear spins                              I   N=          14
           0           0           0           0           1           1
           1           1           1           1           1           1
           1           1
Nuclear ZEff                               R   N=          14
 -3.60000000E+00 -3.60000000E+00 -3.60000000E+00 -3.60000000E+00 -1.00000000E+00
 -1.00000000E+00 -1.00000000E+00 -1.00000000E+00 -1.00000000E+00 -1.00000000E+00
 -1.00000000E+00 -1.00000000E+00 -1.00000000E+00 -1.00000000E+00
Nuclear QMom                               R   N=          14
  0.00000000E+00  0.00000000E+00  0.00000000E+00  0.00000000E+00  0.00000000E+00
  0.00000000E+00  0.00000000E+00  0.00000000E+00  0.00000000E+00  0.00000000E+00
  0.00000000E+00  0.00000000E+00  0.00000000E+00  0.00000000E+00
Nuclear GFac                               R   N=          14
  0.00000000E+00  0.00000000E+00  0.00000000E+00  0.00000000E+00  2.79284600E+00
  2.79284600E+00  2.79284600E+00  2.79284600E+00  2.79284600E+00  2.79284600E+00
  2.79284600E+00  2.79284600E+00  2.79284600E+00  2.79284600E+00
MicOpt                                     I   N=          14
          -1          -1          -1          -1          -1          -1
          -1          -1          -1          -1          -1          -1
          -1          -1
Constraint Structure                       R   N=          42
  3.71670271E+00  2.30510801E-01  1.35559513E-02  1.07018905E+00 -9.66727037E-01
 -1.30607276E-02 -1.08172929E+00  9.74041329E-01 -5.19408700E-03 -3.71091426E+00
 -2.28561512E-01  1.16010408E-02  8.61328655E-01 -2.15397508E+00 -1.72027058E+00
  8.57349417E-01 -2.26640551E+00  1.60714309E+00 -8.77987111E-01  2.23128285E+00
  1.65308234E+00 -8.83221635E-01  2.20497215E+00 -1.68185869E+00 -5.21412330E+00
  1.21280352E+00 -9.96299205E-03 -3.99063250E+00 -1.45585107E+00 -1.65146241E+00
 -3.99352062E+00 -1.40782151E+00  1.70819262E+00  4.41288720E+00  5.30653677E-01
  1.95457863E+00  5.11400701E+00 -1.00786978E+00 -9.11572943E-01  3.74842364E+00
  2.05662926E+00 -9.89282137E-01
ONIOM Charges                              I   N=          16
           0           0           0           0           0           0
           0           0           0           0           0           0
           0           0           0           0
ONIOM Multiplicities                       I   N=          16
           1           0           0           0           0           0
           0           0           0           0           0           0
           0           0           0           0
Atom Layers                                I   N=          14
           0           0           0           0           0           0
           0           0           0           0           0           0
           0           0
Atom Modifiers                             I   N=          14
           0           0           0           0           0           0
           0           0           0           0           0           0
           0           0
Atom Modified Types                        C   N=          14
                                                            
                                                            
                                                
Int Atom Modified Types                    I   N=          14
           0           0           0           0           0           0
           0           0           0           0           0           0
           0           0
Link Atoms                                 I   N=          14
           0           0           0           0           0           0
           0           0           0           0           0           0
           0           0
Atom Modified MM Charges                   R   N=          14
  0.00000000E+00  0.00000000E+00  0.00000000E+00  0.00000000E+00  0.00000000E+00
  0.00000000E+00  0.00000000E+00  0.00000000E+00  0.00000000E+00  0.00000000E+00
  0.00000000E+00  0.00000000E+00  0.00000000E+00  0.00000000E+00
Link Distances                             R   N=          56
  0.00000000E+00  0.00000000E+00  0.00000000E+00  0.00000000E+00  0.00000000E+00
  0.00000000E+00  0.00000000E+00  0.00000000E+00  0.00000000E+00  0.00000000E+00
  0.00000000E+00  0.00000000E+00  0.00000000E+00  0.00000000E+00  0.00000000E+00
  0.00000000E+00  0.00000000E+00  0.00000000E+00  0.00000000E+00  0.00000000E+00
  0.00000000E+00  0.00000000E+00  0.00000000E+00  0.00000000E+00  0.00000000E+00
  0.00000000E+00  0.00000000E+00  0.00000000E+00  0.00000000E+00  0.00000000E+00
  0.00000000E+00  0.00000000E+00  0.00000000E+00  0.00000000E+00  0.00000000E+00
  0.00000000E+00  0.00000000E+00  0.00000000E+00  0.00000000E+00  0.00000000E+00
  0.00000000E+00  0.00000000E+00  0.00000000E+00  0.00000000E+00  0.00000000E+00
  0.00000000E+00  0.00000000E+00  0.00000000E+00  0.00000000E+00  0.00000000E+00
  0.00000000E+00  0.00000000E+00  0.00000000E+00  0.00000000E+00  0.00000000E+00
  0.00000000E+00
MxBond                                     I                4
NBond                                      I   N=          14
           4           4           4           4           1           1
           1           1           1           1           1           1
           1           1
IBond                                      I   N=          56
           2          12          13          14           1           3
           5           6           2           4           7           8
           3           9          10          11           2           0
           0           0           2           0           0           0
           3           0           0           0           3           0
           0           0           4           0           0           0
           4           0           0           0           4           0
           0           0           1           0           0           0
           1           0           0           0           1           0
           0           0
RBond                                      R   N=          56
  1.00000000E+00  1.00000000E+00  1.00000000E+00  1.00000000E+00  1.00000000E+00
  1.00000000E+00  1.00000000E+00  1.00000000E+00  1.00000000E+00  1.00000000E+00
  1.00000000E+00  1.00000000E+00  1.00000000E+00  1.00000000E+00  1.00000000E+00
  1.00000000E+00  1.00000000E+00  0.00000000E+00  0.00000000E+00  0.00000000E+00
  1.00000000E+00  0.00000000E+00  0.00000000E+00  0.00000000E+00  1.00000000E+00
  0.00000000E+00  0.00000000E+00  0.00000000E+00  1.00000000E+00  0.00000000E+00
  0.00000000E+00  0.00000000E+00  1.00000000E+00  0.00000000E+00  0.00000000E+00
  0.00000000E+00  1.00000000E+00  0.00000000E+00  0.00000000E+00  0.00000000E+00
  1.00000000E+00  0.00000000E+00  0.00000000E+00  0.00000000E+00  1.00000000E+00
  0.00000000E+00  0.00000000E+00  0.00000000E+00  1.00000000E+00  0.00000000E+00
  0.00000000E+00  0.00000000E+00  1.00000000E+00  0.00000000E+00  0.00000000E+00
  0.00000000E+00
Shell types                                I   N=          54
           0           0           0           1           1          -2
           0           0           0           1           1          -2
           0           0           0           1           1          -2
           0           0           0           1           1          -2
           0           0           1           0           0           1
           0           0           1           0           0           1
           0           0           1           0           0           1
           0           0           1           0           0           1
           0           0           1           0           0           1
Number of primitives per shell             I   N=          54
           7           7           1           3           1           1
           7           7           1           3           1           1
           7           7           1           3           1           1
           7           7           1           3           1           1
           3           1           1           3           1           1
           3           1           1           3           1           1
           3           1           1           3           1           1
           3           1           1           3           1           1
           3           1           1           3           1           1
Shell to atom map                          I   N=          54
           1           1           1           1           1           1
           2           2           2           2           2           2
           3           3           3           3           3           3
           4           4           4           4           4           4
           5           5           5           6           6           6
           7           7           7           8           8           8
           9           9           9          10          10          10
          11          11          11          12          12          12
          13          13          13          14          14          14
Primitive exponents                        R   N=         130
  6.66500000E+03  1.00000000E+03  2.28000000E+02  6.47100000E+01  2.10600000E+01
  7.49500000E+00  2.79700000E+00  6.66500000E+03  1.00000000E+03  6.47100000E+01
  2.10600000E+01  7.49500000E+00  2.79700000E+00  5.21500000E-01  1.59600000E-01
  9.43900000E+00  2.00200000E+00  5.45600000E-01  1.51700000E-01  5.50000000E-01
  6.66500000E+03  1.00000000E+03  2.28000000E+02  6.47100000E+01  2.10600000E+01
  7.49500000E+00  2.79700000E+00  6.66500000E+03  1.00000000E+03  6.47100000E+01
  2.10600000E+01  7.49500000E+00  2.79700000E+00  5.21500000E-01  1.59600000E-01
  9.43900000E+00  2.00200000E+00  5.45600000E-01  1.51700000E-01  5.50000000E-01
  6.66500000E+03  1.00000000E+03  2.28000000E+02  6.47100000E+01  2.10600000E+01
  7.49500000E+00  2.79700000E+00  6.66500000E+03  1.00000000E+03  6.47100000E+01
  2.10600000E+01  7.49500000E+00  2.79700000E+00  5.21500000E-01  1.59600000E-01
  9.43900000E+00  2.00200000E+00  5.45600000E-01  1.51700000E-01  5.50000000E-01
  6.66500000E+03  1.00000000E+03  2.28000000E+02  6.47100000E+01  2.10600000E+01
  7.49500000E+00  2.79700000E+00  6.66500000E+03  1.00000000E+03  6.47100000E+01
  2.10600000E+01  7.49500000E+00  2.79700000E+00  5.21500000E-01  1.59600000E-01
  9.43900000E+00  2.00200000E+00  5.45600000E-01  1.51700000E-01  5.50000000E-01
  1.30100000E+01  1.96200000E+00  4.44600000E-01  1.22000000E-01  7.27000000E-01
  1.30100000E+01  1.96200000E+00  4.44600000E-01  1.22000000E-01  7.27000000E-01
  1.30100000E+01  1.96200000E+00  4.44600000E-01  1.22000000E-01  7.27000000E-01
  1.30100000E+01  1.96200000E+00  4.44600000E-01  1.22000000E-01  7.27000000E-01
  1.30100000E+01  1.96200000E+00  4.44600000E-01  1.22000000E-01  7.27000000E-01
  1.30100000E+01  1.96200000E+00  4.44600000E-01  1.22000000E-01  7.27000000E-01
  1.30100000E+01  1.96200000E+00  4.44600000E-01  1.22000000E-01  7.27000000E-01
  1.30100000E+01  1.96200000E+00  4.44600000E-01  1.22000000E-01  7.27000000E-01
  1.30100000E+01  1.96200000E+00  4.44600000E-01  1.22000000E-01  7.27000000E-01
  1.30100000E+01  1.96200000E+00  4.44600000E-01  1.22000000E-01  7.27000000E-01
Contraction coefficients                   R   N=         130
  6.93516317E-04  5.34150243E-03  2.71366714E-02  1.01992385E-01  2.75508636E-01
  4.51086433E-01  2.87565745E-01  6.28313219E-07 -5.48480000E-05 -3.63137064E-03
 -1.17983699E-02 -1.10909885E-01 -1.34742247E-01  1.10175849E+00  1.00000000E+00
  5.69792516E-02  3.13207212E-01  7.60376742E-01  1.00000000E+00  1.00000000E+00
  6.93516317E-04  5.34150243E-03  2.71366714E-02  1.01992385E-01  2.75508636E-01
  4.51086433E-01  2.87565745E-01  6.28313219E-07 -5.48480000E-05 -3.63137064E-03
 -1.17983699E-02 -1.10909885E-01 -1.34742247E-01  1.10175849E+00  1.00000000E+00
  5.69792516E-02  3.13207212E-01  7.60376742E-01  1.00000000E+00  1.00000000E+00
  6.93516317E-04  5.34150243E-03  2.71366714E-02  1.01992385E-01  2.75508636E-01
  4.51086433E-01  2.87565745E-01  6.28313219E-07 -5.48480000E-05 -3.63137064E-03
 -1.17983699E-02 -1.10909885E-01 -1.34742247E-01  1.10175849E+00  1.00000000E+00
  5.69792516E-02  3.13207212E-01  7.60376742E-01  1.00000000E+00  1.00000000E+00
  6.93516317E-04  5.34150243E-03  2.71366714E-02  1.01992385E-01  2.75508636E-01
  4.51086433E-01  2.87565745E-01  6.28313219E-07 -5.48480000E-05 -3.63137064E-03
 -1.17983699E-02 -1.10909885E-01 -1.34742247E-01  1.10175849E+00  1.00000000E+00
  5.69792516E-02  3.13207212E-01  7.60376742E-01  1.00000000E+00  1.00000000E+00
  3.34987264E-02  2.34800801E-01  8.13682958E-01  1.00000000E+00  1.00000000E+00
  3.34987264E-02  2.34800801E-01  8.13682958E-01  1.00000000E+00  1.00000000E+00
  3.34987264E-02  2.34800801E-01  8.13682958E-01  1.00000000E+00  1.00000000E+00
  3.34987264E-02  2.34800801E-01  8.13682958E-01  1.00000000E+00  1.00000000E+00
  3.34987264E-02  2.34800801E-01  8.13682958E-01  1.00000000E+00  1.00000000E+00
  3.34987264E-02  2.34800801E-01  8.13682958E-01  1.00000000E+00  1.00000000E+00
  3.34987264E-02  2.34800801E-01  8.13682958E-01  1.00000000E+00  1.00000000E+00
  3.34987264E-02  2.34800801E-01  8.13682958E-01  1.00000000E+00  1.00000000E+00
  3.34987264E-02  2.34800801E-01  8.13682958E-01  1.00000000E+00  1.00000000E+00
  3.34987264E-02  2.34800801E-01  8.13682958E-01  1.00000000E+00  1.00000000E+00
Coordinates of each shell                  R   N=         162
  3.71670271E+00  2.30510801E-01  1.35559513E-02  3.71670271E+00  2.30510801E-01
  1.35559513E-02  3.71670271E+00  2.30510801E-01  1.35559513E-02  3.71670271E+00
  2.30510801E-01  1.35559513E-02  3.71670271E+00  2.30510801E-01  1.35559513E-02
  3.71670271E+00  2.30510801E-01  1.35559513E-02  1.07018905E+00 -9.66727037E-01
 -1.30607276E-02  1.07018905E+00 -9.66727037E-01 -1.30607276E-02  1.07018905E+00
 -9.66727037E-01 -1.30607276E-02  1.07018905E+00 -9.66727037E-01 -1.30607276E-02
  1.07018905E+00 -9.66727037E-01 -1.30607276E-02  1.07018905E+00 -9.66727037E-01
 -1.30607276E-02 -1.08172929E+00  9.74041329E-01 -5.19408700E-03 -1.08172929E+00
  9.74041329E-01 -5.19408700E-03 -1.08172929E+00  9.74041329E-01 -5.19408700E-03
 -1.08172929E+00  9.74041329E-01 -5.19408700E-03 -1.08172929E+00  9.74041329E-01
 -5.19408700E-03 -1.08172929E+00  9.74041329E-01 -5.19408700E-03 -3.71091426E+00
 -2.28561512E-01  1.16010408E-02 -3.71091426E+00 -2.28561512E-01  1.16010408E-02
 -3.71091426E+00 -2.28561512E-01  1.16010408E-02 -3.71091426E+00 -2.28561512E-01
  1.16010408E-02 -3.71091426E+00 -2.28561512E-01  1.16010408E-02 -3.71091426E+00
 -2.28561512E-01  1.16010408E-02  8.61328655E-01 -2.15397508E+00 -1.72027058E+00
  8.61328655E-01 -2.15397508E+00 -1.72027058E+00  8.61328655E-01 -2.15397508E+00
 -1.72027058E+00  8.57349417E-01 -2.26640551E+00  1.60714309E+00  8.57349417E-01
 -2.26640551E+00  1.60714309E+00  8.57349417E-01 -2.26640551E+00  1.60714309E+00
 -8.77987111E-01  2.23128285E+00  1.65308234E+00 -8.77987111E-01  2.23128285E+00
  1.65308234E+00 -8.77987111E-01  2.23128285E+00  1.65308234E+00 -8.83221635E-01
  2.20497215E+00 -1.68185869E+00 -8.83221635E-01  2.20497215E+00 -1.68185869E+00
 -8.83221635E-01  2.20497215E+00 -1.68185869E+00 -5.21412330E+00  1.21280352E+00
 -9.96299205E-03 -5.21412330E+00  1.21280352E+00 -9.96299205E-03 -5.21412330E+00
  1.21280352E+00 -9.96299205E-03 -3.99063250E+00 -1.45585107E+00 -1.65146241E+00
 -3.99063250E+00 -1.45585107E+00 -1.65146241E+00 -3.99063250E+00 -1.45585107E+00
 -1.65146241E+00 -3.99352062E+00 -1.40782151E+00  1.70819262E+00 -3.99352062E+00
 -1.40782151E+00  1.70819262E+00 -3.99352062E+00 -1.40782151E+00  1.70819262E+00
  4.41288720E+00  5.30653677E-01  1.95457863E+00  4.41288720E+00  5.30653677E-01
  1.95457863E+00  4.41288720E+00  5.30653677E-01  1.95457863E+00  5.11400701E+00
 -1.00786978E+00 -9.11572943E-01  5.11400701E+00 -1.00786978E+00 -9.11572943E-01
  5.11400701E+00 -1.00786978E+00 -9.11572943E-01  3.74842364E+00  2.05662926E+00
 -9.89282137E-01  3.74842364E+00  2.05662926E+00 -9.89282137E-01  3.74842364E+00
  2.05662926E+00 -9.89282137E-01
Alpha Orbital Energies                     R   N=         106
 -1.01803358E+01 -1.01800591E+01 -1.01757736E+01 -1.01757033E+01 -7.89883264E-01
 -7.19944725E-01 -6.27517059E-01 -5.72080780E-01 -4.62581908E-01 -4.21603582E-01
 -4.16555015E-01 -4.06768128E-01 -3.64517193E-01 -3.47633255E-01 -3.32770127E-01
 -3.21609678E-01 -3.15824034E-01  6.11642706E-02  8.01156304E-02  9.60326616E-02
  1.00399433E-01  1.30246218E-01  1.38804852E-01  1.46241018E-01  1.50855102E-01
  1.63298234E-01  1.84576807E-01  2.27760414E-01  2.33404053E-01  2.56825473E-01
  4.02198829E-01  4.05962207E-01  4.14522199E-01  4.21708164E-01  4.55044373E-01
  5.11800658E-01  5.21639135E-01  5.84476851E-01  6.08823826E-01  6.32609415E-01
  6.43919270E-01  6.47340544E-01  6.48334031E-01  6.61616218E-01  6.64366143E-01
  6.68349762E-01  6.75366188E-01  6.86717216E-01  6.98276712E-01  7.15579377E-01
  7.31117269E-01  7.49923148E-01  8.88460971E-01  8.92049469E-01  9.61786976E-01
  1.08514549E+00  1.19181210E+00  1.21251739E+00  1.22466989E+00  1.23360738E+00
  1.29399423E+00  1.33576486E+00  1.41778494E+00  1.42631332E+00  1.44082716E+00
  1.49137080E+00  1.56072257E+00  1.56179895E+00  1.60329564E+00  1.61852832E+00
  1.62752262E+00  1.63344524E+00  1.65118961E+00  1.66127478E+00  1.68694681E+00
  1.69734472E+00  1.70491717E+00  1.72522245E+00  1.73259542E+00  1.75258810E+00
  1.78792849E+00  1.80168138E+00  1.86863184E+00  1.88084445E+00  1.93759117E+00
  1.98323480E+00  2.00586309E+00  2.08864138E+00  2.09755704E+00  2.12565615E+00
  2.15504165E+00  2.20347224E+00  2.22153741E+00  2.27964396E+00  2.30951368E+00
  2.32417810E+00  2.40626427E+00  2.41228204E+00  2.41535445E+00  2.45020571E+00
  2.47723343E+00  2.51847887E+00  2.56796101E+00  2.62470741E+00  2.68059286E+00
  2.71669546E+00
Alpha MO coefficients                      R   N=       11236
  3.98146091E-03 -3.65277938E-04  2.08959100E-03  3.27745363E-04  7.76063082E-05
 -5.76451908E-05 -6.61948707E-04 -1.28163709E-04  5.41398775E-06  1.79521603E-05
 -4.50826548E-05 -3.78137953E-05 -3.90709806E-04 -3.47966211E-04  3.17687223E-01
  9.39992182E-03 -1.31740794E-03  1.06190797E-04 -5.54788352E-04 -1.63460561E-05
 -2.24107957E-03  7.08028378E-04  8.24836734E-05  7.41101134E-04 -3.39455842E-05
 -3.49105198E-05 -2.70597265E-04  8.67834471E-04  9.44753596E-01  2.95161557E-02
 -2.05239717E-02  1.91666483E-05  9.14927233E-04 -7.27362669E-06  1.19678852E-03
  2.89725339E-03  3.10833519E-05  1.03312535E-03 -1.60171066E-06  2.49028533E-05
 -6.44131956E-04  4.79849751E-04  1.75476743E-02 -6.37652468E-05  6.08985540E-03
 -3.85819492E-04 -1.27677347E-04  1.14300352E-06  2.33627727E-03  9.48097649E-04
 -3.17661128E-05  4.13357679E-04  8.72916307E-06 -3.79378644E-07 -6.12150745E-04
 -7.75575102E-04 -7.75784504E-04  1.05193046E-03 -1.82657823E-04 -2.22387563E-04
 -5.80988701E-04 -8.51538390E-04  9.91146008E-04 -1.25953620E-04 -3.01998935E-04
  5.64870961E-04 -1.25984998E-03  2.04478652E-03  1.87271812E-04  9.58108628E-04
  1.61360317E-03 -1.23983284E-03  2.15551921E-03  1.86466243E-04  9.18050408E-04
 -1.61332209E-03 -6.55179730E-04 -1.03768347E-04 -2.30657244E-04  6.82931713E-05
 -1.80713841E-07 -5.00885131E-04  1.65623107E-04  2.64682524E-05  4.22983684E-06
 -8.02867190E-05 -5.09485712E-04  2.07491735E-04  2.44079705E-05  7.03250762E-06
  7.83086046E-05 -1.03818623E-04 -1.49238525E-04  6.48128891E-05 -1.31340071E-05
 -3.18202672E-05 -2.39478898E-04  1.78302554E-04  4.92069866E-05 -6.98524115E-06
 -5.26478424E-05 -2.91102533E-04 -2.83366891E-04  2.24239570E-05  4.88307887E-05
 -9.30861798E-05  1.84933823E-02  1.72550367E-04  6.08140368E-03  2.09291991E-04
  1.04107250E-04  3.70931079E-05 -2.46103043E-03 -5.72931532E-04 -6.91362443E-04
  5.60820758E-04 -2.48232846E-05  3.47386523E-05 -4.93676870E-04 -6.90853617E-04
  9.44759702E-01  2.99639743E-02 -2.50154382E-02 -1.38828138E-04 -7.46251555E-04
 -5.29548260E-05  6.25494431E-04 -4.32734239E-03  3.84174030E-04  7.30022189E-04
  4.61385984E-05 -5.37567812E-05 -5.80244711E-04 -4.06586606E-05 -3.17651872E-01
 -1.06035616E-02  1.40790765E-02 -1.57017964E-04 -7.14383305E-06  1.62737678E-05
  2.21552402E-03 -3.19295665E-03 -9.46015157E-05  1.53188818E-04  1.45482886E-05
  5.90942232E-06  1.62387516E-04  6.79646554E-04 -8.38151239E-03 -4.61839833E-04
 -1.78736100E-03 -1.63885761E-04  6.84722319E-05 -5.63952820E-06 -7.24594903E-04
 -6.20833194E-04  6.43174143E-05 -2.87554711E-04  4.85543509E-06  8.30200760E-06
  2.13875508E-05  1.12270696E-04 -8.44174790E-04  2.03979219E-03 -1.33217566E-04
 -8.99767627E-04 -1.61363444E-03 -1.00133495E-03  1.70077504E-03 -1.67958818E-04
 -1.03156226E-03  1.54783020E-03 -8.08134344E-05 -2.84821645E-04  1.70051680E-05
 -3.67176555E-04 -4.98203841E-04 -1.07950342E-04 -2.34664031E-04  5.41504781E-05
 -3.84034421E-04  5.20805449E-04  1.45549831E-04  4.90532854E-04  8.26914266E-05
  2.00954956E-06 -7.15345587E-06  1.31735827E-04 -4.48645546E-04 -1.25921918E-04
  5.55383573E-05 -9.48423103E-06  1.23082427E-04 -4.63817511E-04 -1.25730069E-04
  5.65585309E-05 -9.55194959E-07 -5.17333138E-04  7.06620036E-04 -2.09679507E-05
 -4.89755763E-06  8.29537416E-05 -6.24220305E-04 -2.21188817E-04  2.12438954E-04
 -8.26533812E-05 -5.38480738E-06 -5.60192882E-04 -2.43119991E-04 -2.44146984E-05
  8.86338116E-05 -3.11320949E-05 -5.06877828E-02 -1.95534676E-03  3.55665856E-03
 -4.87478993E-05 -2.60385616E-05 -6.06699315E-06 -1.43755079E-03 -6.16525037E-04
  1.30544891E-04 -6.33111693E-05  5.31259938E-06 -1.26771568E-05  3.62552199E-05
  1.02592144E-04  3.22889242E-03 -3.44590310E-04 -1.95178087E-04  2.81457109E-04
  3.31678939E-05  6.69404761E-06 -3.02971325E-03 -7.04531625E-04 -1.10686504E-04
 -1.84686958E-04 -8.33760980E-06 -6.02876877E-06 -4.16365193E-05  2.59701834E-05
 -1.93570771E-02 -7.81146739E-04  4.03832653E-03  3.13601826E-04  2.44586706E-04
 -2.39909176E-06 -2.55933752E-03 -3.05130514E-04  4.95209953E-05  6.32619686E-04
  1.16924633E-05 -2.04893036E-07 -5.50335902E-04 -5.62609145E-04  9.95321252E-01
  3.09908449E-02 -1.85360085E-02 -7.23101723E-04 -4.15281103E-04  5.02329314E-06
 -2.85891159E-03 -3.19818435E-04  6.18006016E-06  3.74662154E-04  5.91105194E-06
 -1.95592951E-06 -4.47381858E-04 -5.46461478E-04 -1.90334430E-04 -3.93166417E-04
  2.24047953E-04  6.63776641E-05 -5.93561643E-05 -1.94917595E-04 -2.77963644E-04
  2.20009435E-04  7.03457017E-05  7.25901377E-05 -3.81475923E-04  1.89584733E-04
 -1.78459495E-05 -3.50307373E-05  2.80990507E-05 -3.85213622E-04  2.36383105E-04
 -1.60978224E-05 -3.50692907E-05 -2.69893535E-05 -1.46973752E-03  1.53610951E-03
 -1.36720936E-03  1.46924129E-03 -2.23061474E-05 -1.13106639E-03  2.27844324E-03
 -7.37007435E-05 -1.14719713E-03 -1.55237314E-03 -1.13900789E-03  2.28149560E-03
 -7.39157677E-05 -1.10518397E-03  1.58523082E-03 -7.48953884E-05 -1.21174524E-04
  1.47708294E-05 -2.30445976E-06 -9.52709337E-05 -4.12695271E-05  1.54732785E-04
 -6.84844464E-05  9.27468512E-05  5.20668552E-05 -6.39013000E-05  3.68172925E-05
  2.03195915E-05 -6.96071143E-05  4.46762543E-05  9.95323396E-01  3.08762644E-02
 -1.81312166E-02  7.94907691E-04  3.57203796E-04  2.19727779E-05  2.44261465E-03
  7.17167966E-04 -2.76194171E-04  4.20223109E-04  1.14940743E-05 -2.24685177E-05
 -4.41641368E-04 -5.20601744E-04 -1.86389300E-02 -8.07243689E-04  4.00024813E-03
 -2.82728462E-04 -2.37782860E-04 -8.18508677E-06  2.42658049E-03  1.94673555E-04