Butano diedro spostato da usare per armonia                             
Freq      RB3LYP                                                      CC-pVDZ             
Number of atoms                            I               14
Charge                                     I                0
Multiplicity                               I                1
Number of electrons                        I               34
Number of alpha electrons                  I               17
Number of beta electrons                   I               17
Number of basis functions                  I              106
Number of independant functions            I              106
Number of point charges in /Mol/           I                0
Number of translation vectors              I                0
Number of symbols in /Mol/                 I                0
Info1-9                                    I   N=           9
          25          25        1001           0           0         100
           6          18        -501
Num ILSW                                   I              100
ILSW                                       I   N=         100
           0           0           0           0           2           0
           0           0           3           0         402      200000
           5           0           0           0           0           0
           0      800000           1           0           1           0
           1           0           0           0     1000000           0
           0           0           0           0          -1           0
           0           0           0           0           0           0
           0           0           0           1           0           0
           0           0           1      720000      810000           0
           0           0           0           0           0           0
           0           0           0           0           0           0
           0           0           0           0           0           0
           0           0           0           0           0           0
           0           0           0           0           0           0
           0           0           0           0           0           0
           0           0           0           0           0           0
           0           0           0           0
Number of contracted shells                I               54
Highest angular momentum                   I                2
Largest degree of contraction              I                7
Number of primitive shells                 I              130
Pure/Cartesian d shells                    I                0
Pure/Cartesian f shells                    I                0
Virial Ratio                               R      2.009401910603163E+00
SCF Energy                                 R     -1.584557005343445E+02
Total Energy                               R     -1.584557005343445E+02
RMS Force                                  R      9.854342154195457E-04
RMS Density                                R      8.145410714117061E-10
Atomic numbers                             I   N=          14
           6           6           6           6           1           1
           1           1           1           1           1           1
           1           1
Nuclear charges                            R   N=          14
  6.00000000E+00  6.00000000E+00  6.00000000E+00  6.00000000E+00  1.00000000E+00
  1.00000000E+00  1.00000000E+00  1.00000000E+00  1.00000000E+00  1.00000000E+00
  1.00000000E+00  1.00000000E+00  1.00000000E+00  1.00000000E+00
Current cartesian coordinates              R   N=          42
 -3.20998263E+00 -8.85374288E-01  2.55541558E-01 -1.24794978E+00  9.90196452E-01
 -7.51957375E-01  1.24795038E+00  9.90197146E-01  7.51956978E-01  3.20998267E+00
 -8.85375088E-01 -2.55541298E-01 -8.46685162E-01  5.98131166E-01 -2.76376778E+00
 -2.08313257E+00  2.90227177E+00 -7.01409770E-01  2.08313240E+00  2.90227367E+00
  7.01407943E-01  8.46686854E-01  5.98133687E-01  2.76376735E+00  4.94365803E+00
 -8.75936765E-01  8.99661347E-01  2.47849954E+00 -2.83875981E+00 -2.64216475E-01
  3.75195313E+00 -4.14642366E-01 -2.21288757E+00 -4.94366472E+00 -8.75925719E-01
 -8.99651708E-01 -2.47850732E+00 -2.83876160E+00  2.64204812E-01 -3.75194403E+00
 -4.14649365E-01  2.21289268E+00
Atom Types                                 C   N=          14
                                                            
                                                            
                                                
Int Atom Types                             I   N=          14
           0           0           0           0           0           0
           0           0           0           0           0           0
           0           0
Force Field                                I                0
MM charges                                 R   N=          14
  0.00000000E+00  0.00000000E+00  0.00000000E+00  0.00000000E+00  0.00000000E+00
  0.00000000E+00  0.00000000E+00  0.00000000E+00  0.00000000E+00  0.00000000E+00
  0.00000000E+00  0.00000000E+00  0.00000000E+00  0.00000000E+00
Integer atomic weights                     I   N=          14
          12          12          12          12           1           1
           1           1           1           1           1           1
           1           1
Real atomic weights                        R   N=          14
  1.20000000E+01  1.20000000E+01  1.20000000E+01  1.20000000E+01  1.00782504E+00
  1.00782504E+00  1.00782504E+00  1.00782504E+00  1.00782504E+00  1.00782504E+00
  1.00782504E+00  1.00782504E+00  1.00782504E+00  1.00782504E+00
Atom residue info                          I   N=          14
           0           0           0           0           0           0
           0           0           0           0           0           0
           0           0
Atom fragment info                         I   N=          14
           0           0           0           0           0           0
           0           0           0           0           0           0
           0           0
Atom residue num                           I   N=          14
           0           0           0           0           0           0
           0           0           0           0           0           0
           0           0
Nuclear spins                              I   N=          14
           0           0           0           0           1           1
           1           1           1           1           1           1
           1           1
Nuclear ZEff                               R   N=          14
 -3.60000000E+00 -3.60000000E+00 -3.60000000E+00 -3.60000000E+00 -1.00000000E+00
 -1.00000000E+00 -1.00000000E+00 -1.00000000E+00 -1.00000000E+00 -1.00000000E+00
 -1.00000000E+00 -1.00000000E+00 -1.00000000E+00 -1.00000000E+00
Nuclear QMom                               R   N=          14
  0.00000000E+00  0.00000000E+00  0.00000000E+00  0.00000000E+00  0.00000000E+00
  0.00000000E+00  0.00000000E+00  0.00000000E+00  0.00000000E+00  0.00000000E+00
  0.00000000E+00  0.00000000E+00  0.00000000E+00  0.00000000E+00
Nuclear GFac                               R   N=          14
  0.00000000E+00  0.00000000E+00  0.00000000E+00  0.00000000E+00  2.79284600E+00
  2.79284600E+00  2.79284600E+00  2.79284600E+00  2.79284600E+00  2.79284600E+00
  2.79284600E+00  2.79284600E+00  2.79284600E+00  2.79284600E+00
MicOpt                                     I   N=          14
          -1          -1          -1          -1          -1          -1
          -1          -1          -1          -1          -1          -1
          -1          -1
Constraint Structure                       R   N=          42
 -3.20998263E+00 -8.85374288E-01  2.55541558E-01 -1.24794978E+00  9.90196452E-01
 -7.51957375E-01  1.24795038E+00  9.90197146E-01  7.51956978E-01  3.20998267E+00
 -8.85375088E-01 -2.55541298E-01 -8.46685162E-01  5.98131166E-01 -2.76376778E+00
 -2.08313257E+00  2.90227177E+00 -7.01409770E-01  2.08313240E+00  2.90227367E+00
  7.01407943E-01  8.46686854E-01  5.98133687E-01  2.76376735E+00  4.94365803E+00
 -8.75936765E-01  8.99661347E-01  2.47849954E+00 -2.83875981E+00 -2.64216475E-01
  3.75195313E+00 -4.14642366E-01 -2.21288757E+00 -4.94366472E+00 -8.75925719E-01
 -8.99651708E-01 -2.47850732E+00 -2.83876160E+00  2.64204812E-01 -3.75194403E+00
 -4.14649365E-01  2.21289268E+00
ONIOM Charges                              I   N=          16
           0           0           0           0           0           0
           0           0           0           0           0           0
           0           0           0           0
ONIOM Multiplicities                       I   N=          16
           1           0           0           0           0           0
           0           0           0           0           0           0
           0           0           0           0
Atom Layers                                I   N=          14
           0           0           0           0           0           0
           0           0           0           0           0           0
           0           0
Atom Modifiers                             I   N=          14
           0           0           0           0           0           0
           0           0           0           0           0           0
           0           0
Atom Modified Types                        C   N=          14
                                                            
                                                            
                                                
Int Atom Modified Types                    I   N=          14
           0           0           0           0           0           0
           0           0           0           0           0           0
           0           0
Link Atoms                                 I   N=          14
           0           0           0           0           0           0
           0           0           0           0           0           0
           0           0
Atom Modified MM Charges                   R   N=          14
  0.00000000E+00  0.00000000E+00  0.00000000E+00  0.00000000E+00  0.00000000E+00
  0.00000000E+00  0.00000000E+00  0.00000000E+00  0.00000000E+00  0.00000000E+00
  0.00000000E+00  0.00000000E+00  0.00000000E+00  0.00000000E+00
Link Distances                             R   N=          56
  0.00000000E+00  0.00000000E+00  0.00000000E+00  0.00000000E+00  0.00000000E+00
  0.00000000E+00  0.00000000E+00  0.00000000E+00  0.00000000E+00  0.00000000E+00
  0.00000000E+00  0.00000000E+00  0.00000000E+00  0.00000000E+00  0.00000000E+00
  0.00000000E+00  0.00000000E+00  0.00000000E+00  0.00000000E+00  0.00000000E+00
  0.00000000E+00  0.00000000E+00  0.00000000E+00  0.00000000E+00  0.00000000E+00
  0.00000000E+00  0.00000000E+00  0.00000000E+00  0.00000000E+00  0.00000000E+00
  0.00000000E+00  0.00000000E+00  0.00000000E+00  0.00000000E+00  0.00000000E+00
  0.00000000E+00  0.00000000E+00  0.00000000E+00  0.00000000E+00  0.00000000E+00
  0.00000000E+00  0.00000000E+00  0.00000000E+00  0.00000000E+00  0.00000000E+00
  0.00000000E+00  0.00000000E+00  0.00000000E+00  0.00000000E+00  0.00000000E+00
  0.00000000E+00  0.00000000E+00  0.00000000E+00  0.00000000E+00  0.00000000E+00
  0.00000000E+00
MxBond                                     I                4
NBond                                      I   N=          14
           4           4           4           4           1           1
           1           1           1           1           1           1
           1           1
IBond                                      I   N=          56
           2          12          13          14           1           3
           5           6           2           4           7           8
           3           9          10          11           2           0
           0           0           2           0           0           0
           3           0           0           0           3           0
           0           0           4           0           0           0
           4           0           0           0           4           0
           0           0           1           0           0           0
           1           0           0           0           1           0
           0           0
RBond                                      R   N=          56
  1.00000000E+00  1.00000000E+00  1.00000000E+00  1.00000000E+00  1.00000000E+00
  1.00000000E+00  1.00000000E+00  1.00000000E+00  1.00000000E+00  1.00000000E+00
  1.00000000E+00  1.00000000E+00  1.00000000E+00  1.00000000E+00  1.00000000E+00
  1.00000000E+00  1.00000000E+00  0.00000000E+00  0.00000000E+00  0.00000000E+00
  1.00000000E+00  0.00000000E+00  0.00000000E+00  0.00000000E+00  1.00000000E+00
  0.00000000E+00  0.00000000E+00  0.00000000E+00  1.00000000E+00  0.00000000E+00
  0.00000000E+00  0.00000000E+00  1.00000000E+00  0.00000000E+00  0.00000000E+00
  0.00000000E+00  1.00000000E+00  0.00000000E+00  0.00000000E+00  0.00000000E+00
  1.00000000E+00  0.00000000E+00  0.00000000E+00  0.00000000E+00  1.00000000E+00
  0.00000000E+00  0.00000000E+00  0.00000000E+00  1.00000000E+00  0.00000000E+00
  0.00000000E+00  0.00000000E+00  1.00000000E+00  0.00000000E+00  0.00000000E+00
  0.00000000E+00
Shell types                                I   N=          54
           0           0           0           1           1          -2
           0           0           0           1           1          -2
           0           0           0           1           1          -2
           0           0           0           1           1          -2
           0           0           1           0           0           1
           0           0           1           0           0           1
           0           0           1           0           0           1
           0           0           1           0           0           1
           0           0           1           0           0           1
Number of primitives per shell             I   N=          54
           7           7           1           3           1           1
           7           7           1           3           1           1
           7           7           1           3           1           1
           7           7           1           3           1           1
           3           1           1           3           1           1
           3           1           1           3           1           1
           3           1           1           3           1           1
           3           1           1           3           1           1
           3           1           1           3           1           1
Shell to atom map                          I   N=          54
           1           1           1           1           1           1
           2           2           2           2           2           2
           3           3           3           3           3           3
           4           4           4           4           4           4
           5           5           5           6           6           6
           7           7           7           8           8           8
           9           9           9          10          10          10
          11          11          11          12          12          12
          13          13          13          14          14          14
Primitive exponents                        R   N=         130
  6.66500000E+03  1.00000000E+03  2.28000000E+02  6.47100000E+01  2.10600000E+01
  7.49500000E+00  2.79700000E+00  6.66500000E+03  1.00000000E+03  6.47100000E+01
  2.10600000E+01  7.49500000E+00  2.79700000E+00  5.21500000E-01  1.59600000E-01
  9.43900000E+00  2.00200000E+00  5.45600000E-01  1.51700000E-01  5.50000000E-01
  6.66500000E+03  1.00000000E+03  2.28000000E+02  6.47100000E+01  2.10600000E+01
  7.49500000E+00  2.79700000E+00  6.66500000E+03  1.00000000E+03  6.47100000E+01
  2.10600000E+01  7.49500000E+00  2.79700000E+00  5.21500000E-01  1.59600000E-01
  9.43900000E+00  2.00200000E+00  5.45600000E-01  1.51700000E-01  5.50000000E-01
  6.66500000E+03  1.00000000E+03  2.28000000E+02  6.47100000E+01  2.10600000E+01
  7.49500000E+00  2.79700000E+00  6.66500000E+03  1.00000000E+03  6.47100000E+01
  2.10600000E+01  7.49500000E+00  2.79700000E+00  5.21500000E-01  1.59600000E-01
  9.43900000E+00  2.00200000E+00  5.45600000E-01  1.51700000E-01  5.50000000E-01
  6.66500000E+03  1.00000000E+03  2.28000000E+02  6.47100000E+01  2.10600000E+01
  7.49500000E+00  2.79700000E+00  6.66500000E+03  1.00000000E+03  6.47100000E+01
  2.10600000E+01  7.49500000E+00  2.79700000E+00  5.21500000E-01  1.59600000E-01
  9.43900000E+00  2.00200000E+00  5.45600000E-01  1.51700000E-01  5.50000000E-01
  1.30100000E+01  1.96200000E+00  4.44600000E-01  1.22000000E-01  7.27000000E-01
  1.30100000E+01  1.96200000E+00  4.44600000E-01  1.22000000E-01  7.27000000E-01
  1.30100000E+01  1.96200000E+00  4.44600000E-01  1.22000000E-01  7.27000000E-01
  1.30100000E+01  1.96200000E+00  4.44600000E-01  1.22000000E-01  7.27000000E-01
  1.30100000E+01  1.96200000E+00  4.44600000E-01  1.22000000E-01  7.27000000E-01
  1.30100000E+01  1.96200000E+00  4.44600000E-01  1.22000000E-01  7.27000000E-01
  1.30100000E+01  1.96200000E+00  4.44600000E-01  1.22000000E-01  7.27000000E-01
  1.30100000E+01  1.96200000E+00  4.44600000E-01  1.22000000E-01  7.27000000E-01
  1.30100000E+01  1.96200000E+00  4.44600000E-01  1.22000000E-01  7.27000000E-01
  1.30100000E+01  1.96200000E+00  4.44600000E-01  1.22000000E-01  7.27000000E-01
Contraction coefficients                   R   N=         130
  6.93516317E-04  5.34150243E-03  2.71366714E-02  1.01992385E-01  2.75508636E-01
  4.51086433E-01  2.87565745E-01  6.28313219E-07 -5.48480000E-05 -3.63137064E-03
 -1.17983699E-02 -1.10909885E-01 -1.34742247E-01  1.10175849E+00  1.00000000E+00
  5.69792516E-02  3.13207212E-01  7.60376742E-01  1.00000000E+00  1.00000000E+00
  6.93516317E-04  5.34150243E-03  2.71366714E-02  1.01992385E-01  2.75508636E-01
  4.51086433E-01  2.87565745E-01  6.28313219E-07 -5.48480000E-05 -3.63137064E-03
 -1.17983699E-02 -1.10909885E-01 -1.34742247E-01  1.10175849E+00  1.00000000E+00
  5.69792516E-02  3.13207212E-01  7.60376742E-01  1.00000000E+00  1.00000000E+00
  6.93516317E-04  5.34150243E-03  2.71366714E-02  1.01992385E-01  2.75508636E-01
  4.51086433E-01  2.87565745E-01  6.28313219E-07 -5.48480000E-05 -3.63137064E-03
 -1.17983699E-02 -1.10909885E-01 -1.34742247E-01  1.10175849E+00  1.00000000E+00
  5.69792516E-02  3.13207212E-01  7.60376742E-01  1.00000000E+00  1.00000000E+00
  6.93516317E-04  5.34150243E-03  2.71366714E-02  1.01992385E-01  2.75508636E-01
  4.51086433E-01  2.87565745E-01  6.28313219E-07 -5.48480000E-05 -3.63137064E-03
 -1.17983699E-02 -1.10909885E-01 -1.34742247E-01  1.10175849E+00  1.00000000E+00
  5.69792516E-02  3.13207212E-01  7.60376742E-01  1.00000000E+00  1.00000000E+00
  3.34987264E-02  2.34800801E-01  8.13682958E-01  1.00000000E+00  1.00000000E+00
  3.34987264E-02  2.34800801E-01  8.13682958E-01  1.00000000E+00  1.00000000E+00
  3.34987264E-02  2.34800801E-01  8.13682958E-01  1.00000000E+00  1.00000000E+00
  3.34987264E-02  2.34800801E-01  8.13682958E-01  1.00000000E+00  1.00000000E+00
  3.34987264E-02  2.34800801E-01  8.13682958E-01  1.00000000E+00  1.00000000E+00
  3.34987264E-02  2.34800801E-01  8.13682958E-01  1.00000000E+00  1.00000000E+00
  3.34987264E-02  2.34800801E-01  8.13682958E-01  1.00000000E+00  1.00000000E+00
  3.34987264E-02  2.34800801E-01  8.13682958E-01  1.00000000E+00  1.00000000E+00
  3.34987264E-02  2.34800801E-01  8.13682958E-01  1.00000000E+00  1.00000000E+00
  3.34987264E-02  2.34800801E-01  8.13682958E-01  1.00000000E+00  1.00000000E+00
Coordinates of each shell                  R   N=         162
 -3.20998263E+00 -8.85374288E-01  2.55541558E-01 -3.20998263E+00 -8.85374288E-01
  2.55541558E-01 -3.20998263E+00 -8.85374288E-01  2.55541558E-01 -3.20998263E+00
 -8.85374288E-01  2.55541558E-01 -3.20998263E+00 -8.85374288E-01  2.55541558E-01
 -3.20998263E+00 -8.85374288E-01  2.55541558E-01 -1.24794978E+00  9.90196452E-01
 -7.51957375E-01 -1.24794978E+00  9.90196452E-01 -7.51957375E-01 -1.24794978E+00
  9.90196452E-01 -7.51957375E-01 -1.24794978E+00  9.90196452E-01 -7.51957375E-01
 -1.24794978E+00  9.90196452E-01 -7.51957375E-01 -1.24794978E+00  9.90196452E-01
 -7.51957375E-01  1.24795038E+00  9.90197146E-01  7.51956978E-01  1.24795038E+00
  9.90197146E-01  7.51956978E-01  1.24795038E+00  9.90197146E-01  7.51956978E-01
  1.24795038E+00  9.90197146E-01  7.51956978E-01  1.24795038E+00  9.90197146E-01
  7.51956978E-01  1.24795038E+00  9.90197146E-01  7.51956978E-01  3.20998267E+00
 -8.85375088E-01 -2.55541298E-01  3.20998267E+00 -8.85375088E-01 -2.55541298E-01
  3.20998267E+00 -8.85375088E-01 -2.55541298E-01  3.20998267E+00 -8.85375088E-01
 -2.55541298E-01  3.20998267E+00 -8.85375088E-01 -2.55541298E-01  3.20998267E+00
 -8.85375088E-01 -2.55541298E-01 -8.46685162E-01  5.98131166E-01 -2.76376778E+00
 -8.46685162E-01  5.98131166E-01 -2.76376778E+00 -8.46685162E-01  5.98131166E-01
 -2.76376778E+00 -2.08313257E+00  2.90227177E+00 -7.01409770E-01 -2.08313257E+00
  2.90227177E+00 -7.01409770E-01 -2.08313257E+00  2.90227177E+00 -7.01409770E-01
  2.08313240E+00  2.90227367E+00  7.01407943E-01  2.08313240E+00  2.90227367E+00
  7.01407943E-01  2.08313240E+00  2.90227367E+00  7.01407943E-01  8.46686854E-01
  5.98133687E-01  2.76376735E+00  8.46686854E-01  5.98133687E-01  2.76376735E+00
  8.46686854E-01  5.98133687E-01  2.76376735E+00  4.94365803E+00 -8.75936765E-01
  8.99661347E-01  4.94365803E+00 -8.75936765E-01  8.99661347E-01  4.94365803E+00
 -8.75936765E-01  8.99661347E-01  2.47849954E+00 -2.83875981E+00 -2.64216475E-01
  2.47849954E+00 -2.83875981E+00 -2.64216475E-01  2.47849954E+00 -2.83875981E+00
 -2.64216475E-01  3.75195313E+00 -4.14642366E-01 -2.21288757E+00  3.75195313E+00
 -4.14642366E-01 -2.21288757E+00  3.75195313E+00 -4.14642366E-01 -2.21288757E+00
 -4.94366472E+00 -8.75925719E-01 -8.99651708E-01 -4.94366472E+00 -8.75925719E-01
 -8.99651708E-01 -4.94366472E+00 -8.75925719E-01 -8.99651708E-01 -2.47850732E+00
 -2.83876160E+00  2.64204812E-01 -2.47850732E+00 -2.83876160E+00  2.64204812E-01
 -2.47850732E+00 -2.83876160E+00  2.64204812E-01 -3.75194403E+00 -4.14649365E-01
  2.21289268E+00 -3.75194403E+00 -4.14649365E-01  2.21289268E+00 -3.75194403E+00
 -4.14649365E-01  2.21289268E+00
Alpha Orbital Energies                     R   N=         106
 -1.01802011E+01 -1.01800344E+01 -1.01759193E+01 -1.01759177E+01 -7.89632266E-01
 -7.18131276E-01 -6.32442061E-01 -5.67238769E-01 -4.52452094E-01 -4.45216644E-01
 -4.15843876E-01 -3.84477268E-01 -3.71538552E-01 -3.59286345E-01 -3.26687397E-01
 -3.20051067E-01 -3.14916636E-01  5.86031327E-02  9.18690212E-02  9.21121702E-02
  1.00391158E-01  1.31011592E-01  1.40835016E-01  1.44647333E-01  1.48811098E-01
  1.55387938E-01  1.88698083E-01  2.08643007E-01  2.53721216E-01  2.65425541E-01
  3.94450164E-01  4.11977850E-01  4.26851453E-01  4.31106976E-01  4.50694319E-01
  4.77694524E-01  5.37589415E-01  5.87392537E-01  6.09545623E-01  6.26648837E-01
  6.32409516E-01  6.32672170E-01  6.50597171E-01  6.51161054E-01  6.61089727E-01
  6.71583003E-01  6.83036282E-01  6.89609359E-01  7.04475952E-01  7.15607001E-01
  7.37099316E-01  7.78529051E-01  8.85852604E-01  8.89288098E-01  9.63725527E-01
  1.11993177E+00  1.12572016E+00  1.14882988E+00  1.20563747E+00  1.22762055E+00
  1.37390355E+00  1.37493042E+00  1.42187685E+00  1.42602229E+00  1.44156067E+00
  1.46414607E+00  1.56820407E+00  1.58125348E+00  1.61018430E+00  1.62112735E+00
  1.63345797E+00  1.63919587E+00  1.64496810E+00  1.67187825E+00  1.67524147E+00
  1.68351919E+00  1.71131727E+00  1.71223673E+00  1.72194762E+00  1.72542151E+00
  1.77132290E+00  1.81300376E+00  1.85654164E+00  1.87291456E+00  1.97453414E+00
  1.98241819E+00  2.01466371E+00  2.05211753E+00  2.06683339E+00  2.13549438E+00
  2.20208623E+00  2.20219778E+00  2.24165552E+00  2.24627781E+00  2.27609746E+00
  2.29834791E+00  2.40421368E+00  2.41412441E+00  2.43168253E+00  2.48925394E+00
  2.49329254E+00  2.53675549E+00  2.56755762E+00  2.61530458E+00  2.67512312E+00
  2.71777173E+00
Alpha MO coefficients                      R   N=       11236
  1.17164671E-02 -7.56321118E-04  7.20378575E-03 -3.67698427E-04 -1.97369334E-04
 -3.44168855E-06  3.26193231E-03  1.92910968E-03 -2.41464409E-04  1.75077971E-04
  4.54525038E-04  1.95488337E-04  1.43162707E-04 -5.13207288E-04  7.04873573E-01
  2.21585011E-02 -1.35312958E-02 -1.55144220E-04  3.92875317E-04 -5.54873127E-04
  2.05972148E-03  2.79459958E-03 -2.61685996E-03  2.99493439E-04 -7.51955736E-04
  2.99518762E-04 -9.04946722E-04 -6.92764971E-04  7.04839131E-01  2.21574015E-02
 -1.35303060E-02  1.55142042E-04  3.92860557E-04  5.54856763E-04 -2.05985286E-03
  2.79453027E-03  2.61674739E-03  2.99484894E-04 -7.51966606E-04 -2.99511781E-04
 -9.04947262E-04  6.92743246E-04  1.17156627E-02 -7.56354015E-04  7.20363351E-03
  3.67698754E-04 -1.97365367E-04  3.44974006E-06 -3.26191171E-03  1.92908411E-03
  2.41405870E-04  1.75066018E-04  4.54514746E-04 -1.95468698E-04  1.43164385E-04
  5.13176653E-04 -1.13580513E-03  8.14014788E-04  3.95440584E-04 -4.78957402E-04
 -1.32304519E-03 -1.33684488E-03  9.83956205E-04 -7.19639344E-04  1.38986360E-03
  2.51610105E-04 -1.33681791E-03  9.83890750E-04  7.19613887E-04  1.38980301E-03
 -2.51604753E-04 -1.13578881E-03  8.13937430E-04 -3.95427784E-04 -4.78938192E-04
  1.32298409E-03 -5.14129111E-04  8.12089371E-04  1.83810611E-04 -8.62978981E-05
  2.47780434E-05 -6.63156188E-04  6.10442953E-05  7.62541374E-05 -6.04691697E-05
  1.11314527E-04 -6.38334225E-04 -6.74738932E-05  1.67424950E-04  5.78660532E-05
  2.47764453E-05 -5.14150320E-04  8.12050405E-04 -1.83819186E-04 -8.62990943E-05
 -2.47785333E-05 -6.63165553E-04  6.10498795E-05 -7.62507492E-05 -6.04704755E-05
 -1.11311046E-04 -6.38346195E-04 -6.74381920E-05 -1.67416397E-04  5.78695941E-05
 -2.47712467E-05 -1.68806499E-02 -7.01046248E-04 -3.07030868E-03 -3.41516018E-05
  9.73306369E-05 -1.45922210E-04 -2.97649696E-04 -5.99765033E-04  1.20441027E-03
 -2.38004481E-04 -2.23028352E-04 -3.97407961E-04  2.98240775E-05  6.03224254E-04
 -7.04706038E-01 -2.24742936E-02  2.02046152E-02  1.10015068E-05 -2.75118371E-04
  3.54986668E-04  2.69663143E-03 -1.46722620E-03  2.28685744E-03 -2.12698435E-04
 -2.24579949E-04 -1.55491483E-04 -5.78721303E-06  4.03519082E-04  7.04740487E-01
  2.24753755E-02 -2.02052730E-02  1.10072509E-05  2.75136364E-04  3.55014794E-04
  2.69653948E-03  1.46736935E-03  2.28697658E-03  2.12715384E-04  2.24543359E-04
 -1.55505384E-04  5.74312667E-06  4.03552543E-04  1.68812297E-02  7.01009517E-04
  3.07065910E-03 -3.41331076E-05 -9.73389629E-05 -1.45922420E-04 -2.97816843E-04
  5.99845294E-04  1.20442604E-03  2.38015449E-04  2.23049837E-04 -3.97417130E-04
 -2.98166502E-05  6.03248776E-04  3.93096990E-04 -1.59992527E-03 -2.48593693E-04
  3.79943468E-04  1.27420623E-03  4.95315418E-04 -1.32239646E-03  5.00982753E-04
 -1.21568827E-03 -1.41683107E-04 -4.95378977E-04  1.32243865E-03  5.01016938E-04
  1.21575516E-03 -1.41695928E-04 -3.93153448E-04  1.59997192E-03 -2.48613871E-04
 -3.79966405E-04  1.27427165E-03 -4.59505642E-04 -8.60546124E-04  1.65386244E-04
 -2.60032070E-05  3.21255592E-05 -2.09316790E-04  1.25277463E-04 -1.53305193E-04
 -2.12777160E-05 -6.63214605E-05 -1.98888087E-04  7.86718972E-04 -1.86738295E-04
  6.74840150E-05 -7.34626367E-05  4.59480752E-04  8.60588133E-04  1.65377585E-04
  2.59997598E-05  3.21243455E-05  2.09284626E-04 -1.25284119E-04 -1.53309648E-04
  2.12750141E-05 -6.63268389E-05  1.98855454E-04 -7.86717233E-04 -1.86746582E-04
 -6.74791054E-05 -7.34630850E-05  7.04562744E-01  2.20082689E-02 -1.38717450E-02
 -3.79951165E-04 -4.04058856E-04  2.44397230E-04 -2.04290679E-03 -1.07395190E-03
  3.96792663E-04  1.62771556E-04  2.50105844E-04  1.79209640E-04 -1.32464004E-04
 -4.12582629E-04 -1.18528249E-02 -1.12800260E-03  4.20737911E-03 -6.72952256E-05
  3.11033408E-04 -2.03641126E-04 -7.76903776E-04 -1.99244831E-03  7.67915726E-04
  3.30197095E-04  2.74469216E-04  4.50616479E-04 -6.84877538E-05 -5.88422727E-04
 -1.18622921E-02 -1.12803596E-03  4.20777631E-03  6.71574419E-05  3.11077010E-04
  2.03699609E-04  7.78125938E-04 -1.99235553E-03 -7.67789740E-04  3.30328544E-04
  2.74580686E-04 -4.50732552E-04 -6.85823706E-05  5.88705581E-04  7.04961220E-01
  2.20205518E-02 -1.38784245E-02  3.80164129E-04 -4.04269918E-04 -2.44522744E-04
  2.04341309E-03 -1.07444056E-03 -3.96871089E-04  1.62876395E-04  2.50246519E-04
 -1.79346106E-04 -1.32423525E-04  4.12799001E-04 -5.78628900E-04  4.05572018E-04
  1.33187338E-05  5.83116854E-05 -1.50323903E-05 -1.65860350E-04  7.05546865E-04
 -3.82943873E-05 -5.34111972E-05 -1.66368738E-05 -1.66037296E-04  7.05350159E-04
  3.83157485E-05 -5.34209802E-05  1.65853843E-05 -5.78654064E-04  4.05672491E-04
 -1.33076542E-05  5.82466124E-05  1.50179558E-05 -9.39194255E-04  1.15521948E-03
  1.08733897E-03  6.59175471E-05  8.26465209E-04 -7.96233027E-04  1.64924800E-03
 -5.91384812E-04 -1.24584356E-03 -4.16609431E-06 -7.53983663E-04  1.51038702E-03
  2.31205944E-04  3.66070928E-04 -1.28582032E-03 -9.38577476E-04  1.15454230E-03
 -1.08666071E-03  6.58955846E-05 -8.25994673E-04 -7.95718284E-04  1.64831142E-03
  5.91042010E-04 -1.24516135E-03  4.16738516E-06 -7.53458842E-04  1.50944711E-03
 -2.31040321E-04  3.65851002E-04  1.28508956E-03  7.04809859E-01  2.17203135E-02
 -1.17938630E-02 -3.76434319E-04 -3.75354190E-04  2.21953981E-04 -8.88947474E-04
 -8.62560309E-04  1.42288073E-04  1.79857658E-04  2.44831178E-04  2.39067217E-04
  6.84941989E-05 -3.80506142E-04 -1.67305888E-02 -5.68105495E-05  6.80245240E-04
  2.45218907E-04  7.78167618E-05 -1.04763260E-04 -2.16187801E-03  1.71168096E-04