Butano diedro spostato da usare per armonia - tors CH3                  
Freq      RB3LYP                                                      CC-pVDZ             
Number of atoms                            I               14
Charge                                     I                0
Multiplicity                               I                1
Number of electrons                        I               34
Number of alpha electrons                  I               17
Number of beta electrons                   I               17
Number of basis functions                  I              106
Number of independant functions            I              106
Number of point charges in /Mol/           I                0
Number of translation vectors              I                0
Number of symbols in /Mol/                 I                0
Info1-9                                    I   N=           9
          24          24        1001           0           0         100
           6          18        -501
Num ILSW                                   I              100
ILSW                                       I   N=         100
           0           0           0           0           2           0
           0           0           3           0         402      200000
           5           0           0           0           0           0
           0      800000           1           0           1           0
           1           0           0           0     1000000           0
           0           0           0           0          -1           0
           0           0           0           0           0           0
           0           0           0           1           0           0
           0           0           1      720000      810000           0
           0           0           0           0           0           0
           0           0           0           0           0           0
           0           0           0           0           0           0
           0           0           0           0           0           0
           0           0           0           0           0           0
           0           0           0           0           0           0
           0           0           0           0           0           0
           0           0           0           0
Number of contracted shells                I               54
Highest angular momentum                   I                2
Largest degree of contraction              I                7
Number of primitive shells                 I              130
Pure/Cartesian d shells                    I                0
Pure/Cartesian f shells                    I                0
Virial Ratio                               R      2.009403129861193E+00
SCF Energy                                 R     -1.584538350645022E+02
Total Energy                               R     -1.584538350645022E+02
RMS Force                                  R      3.850821072264997E-05
RMS Density                                R      7.389605063526932E-10
Atomic numbers                             I   N=          14
           6           6           6           6           1           1
           1           1           1           1           1           1
           1           1
Nuclear charges                            R   N=          14
  6.00000000E+00  6.00000000E+00  6.00000000E+00  6.00000000E+00  1.00000000E+00
  1.00000000E+00  1.00000000E+00  1.00000000E+00  1.00000000E+00  1.00000000E+00
  1.00000000E+00  1.00000000E+00  1.00000000E+00  1.00000000E+00
Current cartesian coordinates              R   N=          42
 -3.73178896E+00  2.20699564E-01  8.42277670E-04 -1.06522316E+00 -9.70753248E-01
 -8.86823690E-04  1.08464463E+00  9.74577997E-01 -6.50681992E-04  3.71472506E+00
 -2.25258676E-01  6.56553783E-04 -8.38430171E-01 -2.21653081E+00  1.65892264E+00
 -8.39089726E-01 -2.21412118E+00 -1.66255482E+00  8.81930775E-01  2.21827150E+00
 -1.66825965E+00  8.81048957E-01  2.21818640E+00  1.66689083E+00  5.21631014E+00
  1.21794362E+00 -2.13673907E-04  3.99679511E+00 -1.42734319E+00  1.68150957E+00
  3.99680110E+00 -1.42951791E+00 -1.67861062E+00 -4.84217833E+00 -3.38543713E-01
 -1.66898451E+00 -4.83464259E+00 -3.26754177E-01  1.67934778E+00 -3.63269070E+00
  2.30281564E+00 -7.81550732E-03
Atom Types                                 C   N=          14
                                                            
                                                            
                                                
Int Atom Types                             I   N=          14
           0           0           0           0           0           0
           0           0           0           0           0           0
           0           0
Force Field                                I                0
MM charges                                 R   N=          14
  0.00000000E+00  0.00000000E+00  0.00000000E+00  0.00000000E+00  0.00000000E+00
  0.00000000E+00  0.00000000E+00  0.00000000E+00  0.00000000E+00  0.00000000E+00
  0.00000000E+00  0.00000000E+00  0.00000000E+00  0.00000000E+00
Integer atomic weights                     I   N=          14
          12          12          12          12           1           1
           1           1           1           1           1           1
           1           1
Real atomic weights                        R   N=          14
  1.20000000E+01  1.20000000E+01  1.20000000E+01  1.20000000E+01  1.00782504E+00
  1.00782504E+00  1.00782504E+00  1.00782504E+00  1.00782504E+00  1.00782504E+00
  1.00782504E+00  1.00782504E+00  1.00782504E+00  1.00782504E+00
Atom residue info                          I   N=          14
           0           0           0           0           0           0
           0           0           0           0           0           0
           0           0
Atom fragment info                         I   N=          14
           0           0           0           0           0           0
           0           0           0           0           0           0
           0           0
Atom residue num                           I   N=          14
           0           0           0           0           0           0
           0           0           0           0           0           0
           0           0
Nuclear spins                              I   N=          14
           0           0           0           0           1           1
           1           1           1           1           1           1
           1           1
Nuclear ZEff                               R   N=          14
 -3.60000000E+00 -3.60000000E+00 -3.60000000E+00 -3.60000000E+00 -1.00000000E+00
 -1.00000000E+00 -1.00000000E+00 -1.00000000E+00 -1.00000000E+00 -1.00000000E+00
 -1.00000000E+00 -1.00000000E+00 -1.00000000E+00 -1.00000000E+00
Nuclear QMom                               R   N=          14
  0.00000000E+00  0.00000000E+00  0.00000000E+00  0.00000000E+00  0.00000000E+00
  0.00000000E+00  0.00000000E+00  0.00000000E+00  0.00000000E+00  0.00000000E+00
  0.00000000E+00  0.00000000E+00  0.00000000E+00  0.00000000E+00
Nuclear GFac                               R   N=          14
  0.00000000E+00  0.00000000E+00  0.00000000E+00  0.00000000E+00  2.79284600E+00
  2.79284600E+00  2.79284600E+00  2.79284600E+00  2.79284600E+00  2.79284600E+00
  2.79284600E+00  2.79284600E+00  2.79284600E+00  2.79284600E+00
MicOpt                                     I   N=          14
          -1          -1          -1          -1          -1          -1
          -1          -1          -1          -1          -1          -1
          -1          -1
Constraint Structure                       R   N=          42
 -3.73178896E+00  2.20699564E-01  8.42277670E-04 -1.06522316E+00 -9.70753248E-01
 -8.86823690E-04  1.08464463E+00  9.74577997E-01 -6.50681992E-04  3.71472506E+00
 -2.25258676E-01  6.56553783E-04 -8.38430171E-01 -2.21653081E+00  1.65892264E+00
 -8.39089726E-01 -2.21412118E+00 -1.66255482E+00  8.81930775E-01  2.21827150E+00
 -1.66825965E+00  8.81048957E-01  2.21818640E+00  1.66689083E+00  5.21631014E+00
  1.21794362E+00 -2.13673907E-04  3.99679511E+00 -1.42734319E+00  1.68150957E+00
  3.99680110E+00 -1.42951791E+00 -1.67861062E+00 -4.84217833E+00 -3.38543713E-01
 -1.66898451E+00 -4.83464259E+00 -3.26754177E-01  1.67934778E+00 -3.63269070E+00
  2.30281564E+00 -7.81550732E-03
ONIOM Charges                              I   N=          16
           0           0           0           0           0           0
           0           0           0           0           0           0
           0           0           0           0
ONIOM Multiplicities                       I   N=          16
           1           0           0           0           0           0
           0           0           0           0           0           0
           0           0           0           0
Atom Layers                                I   N=          14
           0           0           0           0           0           0
           0           0           0           0           0           0
           0           0
Atom Modifiers                             I   N=          14
           0           0           0           0           0           0
           0           0           0           0           0           0
           0           0
Atom Modified Types                        C   N=          14
                                                            
                                                            
                                                
Int Atom Modified Types                    I   N=          14
           0           0           0           0           0           0
           0           0           0           0           0           0
           0           0
Link Atoms                                 I   N=          14
           0           0           0           0           0           0
           0           0           0           0           0           0
           0           0
Atom Modified MM Charges                   R   N=          14
  0.00000000E+00  0.00000000E+00  0.00000000E+00  0.00000000E+00  0.00000000E+00
  0.00000000E+00  0.00000000E+00  0.00000000E+00  0.00000000E+00  0.00000000E+00
  0.00000000E+00  0.00000000E+00  0.00000000E+00  0.00000000E+00
Link Distances                             R   N=          56
  0.00000000E+00  0.00000000E+00  0.00000000E+00  0.00000000E+00  0.00000000E+00
  0.00000000E+00  0.00000000E+00  0.00000000E+00  0.00000000E+00  0.00000000E+00
  0.00000000E+00  0.00000000E+00  0.00000000E+00  0.00000000E+00  0.00000000E+00
  0.00000000E+00  0.00000000E+00  0.00000000E+00  0.00000000E+00  0.00000000E+00
  0.00000000E+00  0.00000000E+00  0.00000000E+00  0.00000000E+00  0.00000000E+00
  0.00000000E+00  0.00000000E+00  0.00000000E+00  0.00000000E+00  0.00000000E+00
  0.00000000E+00  0.00000000E+00  0.00000000E+00  0.00000000E+00  0.00000000E+00
  0.00000000E+00  0.00000000E+00  0.00000000E+00  0.00000000E+00  0.00000000E+00
  0.00000000E+00  0.00000000E+00  0.00000000E+00  0.00000000E+00  0.00000000E+00
  0.00000000E+00  0.00000000E+00  0.00000000E+00  0.00000000E+00  0.00000000E+00
  0.00000000E+00  0.00000000E+00  0.00000000E+00  0.00000000E+00  0.00000000E+00
  0.00000000E+00
MxBond                                     I                4
NBond                                      I   N=          14
           4           4           4           4           1           1
           1           1           1           1           1           1
           1           1
IBond                                      I   N=          56
           2          12          13          14           1           3
           5           6           2           4           7           8
           3           9          10          11           2           0
           0           0           2           0           0           0
           3           0           0           0           3           0
           0           0           4           0           0           0
           4           0           0           0           4           0
           0           0           1           0           0           0
           1           0           0           0           1           0
           0           0
RBond                                      R   N=          56
  1.00000000E+00  1.00000000E+00  1.00000000E+00  1.00000000E+00  1.00000000E+00
  1.00000000E+00  1.00000000E+00  1.00000000E+00  1.00000000E+00  1.00000000E+00
  1.00000000E+00  1.00000000E+00  1.00000000E+00  1.00000000E+00  1.00000000E+00
  1.00000000E+00  1.00000000E+00  0.00000000E+00  0.00000000E+00  0.00000000E+00
  1.00000000E+00  0.00000000E+00  0.00000000E+00  0.00000000E+00  1.00000000E+00
  0.00000000E+00  0.00000000E+00  0.00000000E+00  1.00000000E+00  0.00000000E+00
  0.00000000E+00  0.00000000E+00  1.00000000E+00  0.00000000E+00  0.00000000E+00
  0.00000000E+00  1.00000000E+00  0.00000000E+00  0.00000000E+00  0.00000000E+00
  1.00000000E+00  0.00000000E+00  0.00000000E+00  0.00000000E+00  1.00000000E+00
  0.00000000E+00  0.00000000E+00  0.00000000E+00  1.00000000E+00  0.00000000E+00
  0.00000000E+00  0.00000000E+00  1.00000000E+00  0.00000000E+00  0.00000000E+00
  0.00000000E+00
Shell types                                I   N=          54
           0           0           0           1           1          -2
           0           0           0           1           1          -2
           0           0           0           1           1          -2
           0           0           0           1           1          -2
           0           0           1           0           0           1
           0           0           1           0           0           1
           0           0           1           0           0           1
           0           0           1           0           0           1
           0           0           1           0           0           1
Number of primitives per shell             I   N=          54
           7           7           1           3           1           1
           7           7           1           3           1           1
           7           7           1           3           1           1
           7           7           1           3           1           1
           3           1           1           3           1           1
           3           1           1           3           1           1
           3           1           1           3           1           1
           3           1           1           3           1           1
           3           1           1           3           1           1
Shell to atom map                          I   N=          54
           1           1           1           1           1           1
           2           2           2           2           2           2
           3           3           3           3           3           3
           4           4           4           4           4           4
           5           5           5           6           6           6
           7           7           7           8           8           8
           9           9           9          10          10          10
          11          11          11          12          12          12
          13          13          13          14          14          14
Primitive exponents                        R   N=         130
  6.66500000E+03  1.00000000E+03  2.28000000E+02  6.47100000E+01  2.10600000E+01
  7.49500000E+00  2.79700000E+00  6.66500000E+03  1.00000000E+03  6.47100000E+01
  2.10600000E+01  7.49500000E+00  2.79700000E+00  5.21500000E-01  1.59600000E-01
  9.43900000E+00  2.00200000E+00  5.45600000E-01  1.51700000E-01  5.50000000E-01
  6.66500000E+03  1.00000000E+03  2.28000000E+02  6.47100000E+01  2.10600000E+01
  7.49500000E+00  2.79700000E+00  6.66500000E+03  1.00000000E+03  6.47100000E+01
  2.10600000E+01  7.49500000E+00  2.79700000E+00  5.21500000E-01  1.59600000E-01
  9.43900000E+00  2.00200000E+00  5.45600000E-01  1.51700000E-01  5.50000000E-01
  6.66500000E+03  1.00000000E+03  2.28000000E+02  6.47100000E+01  2.10600000E+01
  7.49500000E+00  2.79700000E+00  6.66500000E+03  1.00000000E+03  6.47100000E+01
  2.10600000E+01  7.49500000E+00  2.79700000E+00  5.21500000E-01  1.59600000E-01
  9.43900000E+00  2.00200000E+00  5.45600000E-01  1.51700000E-01  5.50000000E-01
  6.66500000E+03  1.00000000E+03  2.28000000E+02  6.47100000E+01  2.10600000E+01
  7.49500000E+00  2.79700000E+00  6.66500000E+03  1.00000000E+03  6.47100000E+01
  2.10600000E+01  7.49500000E+00  2.79700000E+00  5.21500000E-01  1.59600000E-01
  9.43900000E+00  2.00200000E+00  5.45600000E-01  1.51700000E-01  5.50000000E-01
  1.30100000E+01  1.96200000E+00  4.44600000E-01  1.22000000E-01  7.27000000E-01
  1.30100000E+01  1.96200000E+00  4.44600000E-01  1.22000000E-01  7.27000000E-01
  1.30100000E+01  1.96200000E+00  4.44600000E-01  1.22000000E-01  7.27000000E-01
  1.30100000E+01  1.96200000E+00  4.44600000E-01  1.22000000E-01  7.27000000E-01
  1.30100000E+01  1.96200000E+00  4.44600000E-01  1.22000000E-01  7.27000000E-01
  1.30100000E+01  1.96200000E+00  4.44600000E-01  1.22000000E-01  7.27000000E-01
  1.30100000E+01  1.96200000E+00  4.44600000E-01  1.22000000E-01  7.27000000E-01
  1.30100000E+01  1.96200000E+00  4.44600000E-01  1.22000000E-01  7.27000000E-01
  1.30100000E+01  1.96200000E+00  4.44600000E-01  1.22000000E-01  7.27000000E-01
  1.30100000E+01  1.96200000E+00  4.44600000E-01  1.22000000E-01  7.27000000E-01
Contraction coefficients                   R   N=         130
  6.93516317E-04  5.34150243E-03  2.71366714E-02  1.01992385E-01  2.75508636E-01
  4.51086433E-01  2.87565745E-01  6.28313219E-07 -5.48480000E-05 -3.63137064E-03
 -1.17983699E-02 -1.10909885E-01 -1.34742247E-01  1.10175849E+00  1.00000000E+00
  5.69792516E-02  3.13207212E-01  7.60376742E-01  1.00000000E+00  1.00000000E+00
  6.93516317E-04  5.34150243E-03  2.71366714E-02  1.01992385E-01  2.75508636E-01
  4.51086433E-01  2.87565745E-01  6.28313219E-07 -5.48480000E-05 -3.63137064E-03
 -1.17983699E-02 -1.10909885E-01 -1.34742247E-01  1.10175849E+00  1.00000000E+00
  5.69792516E-02  3.13207212E-01  7.60376742E-01  1.00000000E+00  1.00000000E+00
  6.93516317E-04  5.34150243E-03  2.71366714E-02  1.01992385E-01  2.75508636E-01
  4.51086433E-01  2.87565745E-01  6.28313219E-07 -5.48480000E-05 -3.63137064E-03
 -1.17983699E-02 -1.10909885E-01 -1.34742247E-01  1.10175849E+00  1.00000000E+00
  5.69792516E-02  3.13207212E-01  7.60376742E-01  1.00000000E+00  1.00000000E+00
  6.93516317E-04  5.34150243E-03  2.71366714E-02  1.01992385E-01  2.75508636E-01
  4.51086433E-01  2.87565745E-01  6.28313219E-07 -5.48480000E-05 -3.63137064E-03
 -1.17983699E-02 -1.10909885E-01 -1.34742247E-01  1.10175849E+00  1.00000000E+00
  5.69792516E-02  3.13207212E-01  7.60376742E-01  1.00000000E+00  1.00000000E+00
  3.34987264E-02  2.34800801E-01  8.13682958E-01  1.00000000E+00  1.00000000E+00
  3.34987264E-02  2.34800801E-01  8.13682958E-01  1.00000000E+00  1.00000000E+00
  3.34987264E-02  2.34800801E-01  8.13682958E-01  1.00000000E+00  1.00000000E+00
  3.34987264E-02  2.34800801E-01  8.13682958E-01  1.00000000E+00  1.00000000E+00
  3.34987264E-02  2.34800801E-01  8.13682958E-01  1.00000000E+00  1.00000000E+00
  3.34987264E-02  2.34800801E-01  8.13682958E-01  1.00000000E+00  1.00000000E+00
  3.34987264E-02  2.34800801E-01  8.13682958E-01  1.00000000E+00  1.00000000E+00
  3.34987264E-02  2.34800801E-01  8.13682958E-01  1.00000000E+00  1.00000000E+00
  3.34987264E-02  2.34800801E-01  8.13682958E-01  1.00000000E+00  1.00000000E+00
  3.34987264E-02  2.34800801E-01  8.13682958E-01  1.00000000E+00  1.00000000E+00
Coordinates of each shell                  R   N=         162
 -3.73178896E+00  2.20699564E-01  8.42277670E-04 -3.73178896E+00  2.20699564E-01
  8.42277670E-04 -3.73178896E+00  2.20699564E-01  8.42277670E-04 -3.73178896E+00
  2.20699564E-01  8.42277670E-04 -3.73178896E+00  2.20699564E-01  8.42277670E-04
 -3.73178896E+00  2.20699564E-01  8.42277670E-04 -1.06522316E+00 -9.70753248E-01
 -8.86823690E-04 -1.06522316E+00 -9.70753248E-01 -8.86823690E-04 -1.06522316E+00
 -9.70753248E-01 -8.86823690E-04 -1.06522316E+00 -9.70753248E-01 -8.86823690E-04
 -1.06522316E+00 -9.70753248E-01 -8.86823690E-04 -1.06522316E+00 -9.70753248E-01
 -8.86823690E-04  1.08464463E+00  9.74577997E-01 -6.50681992E-04  1.08464463E+00
  9.74577997E-01 -6.50681992E-04  1.08464463E+00  9.74577997E-01 -6.50681992E-04
  1.08464463E+00  9.74577997E-01 -6.50681992E-04  1.08464463E+00  9.74577997E-01
 -6.50681992E-04  1.08464463E+00  9.74577997E-01 -6.50681992E-04  3.71472506E+00
 -2.25258676E-01  6.56553783E-04  3.71472506E+00 -2.25258676E-01  6.56553783E-04
  3.71472506E+00 -2.25258676E-01  6.56553783E-04  3.71472506E+00 -2.25258676E-01
  6.56553783E-04  3.71472506E+00 -2.25258676E-01  6.56553783E-04  3.71472506E+00
 -2.25258676E-01  6.56553783E-04 -8.38430171E-01 -2.21653081E+00  1.65892264E+00
 -8.38430171E-01 -2.21653081E+00  1.65892264E+00 -8.38430171E-01 -2.21653081E+00
  1.65892264E+00 -8.39089726E-01 -2.21412118E+00 -1.66255482E+00 -8.39089726E-01
 -2.21412118E+00 -1.66255482E+00 -8.39089726E-01 -2.21412118E+00 -1.66255482E+00
  8.81930775E-01  2.21827150E+00 -1.66825965E+00  8.81930775E-01  2.21827150E+00
 -1.66825965E+00  8.81930775E-01  2.21827150E+00 -1.66825965E+00  8.81048957E-01
  2.21818640E+00  1.66689083E+00  8.81048957E-01  2.21818640E+00  1.66689083E+00
  8.81048957E-01  2.21818640E+00  1.66689083E+00  5.21631014E+00  1.21794362E+00
 -2.13673907E-04  5.21631014E+00  1.21794362E+00 -2.13673907E-04  5.21631014E+00
  1.21794362E+00 -2.13673907E-04  3.99679511E+00 -1.42734319E+00  1.68150957E+00
  3.99679511E+00 -1.42734319E+00  1.68150957E+00  3.99679511E+00 -1.42734319E+00
  1.68150957E+00  3.99680110E+00 -1.42951791E+00 -1.67861062E+00  3.99680110E+00
 -1.42951791E+00 -1.67861062E+00  3.99680110E+00 -1.42951791E+00 -1.67861062E+00
 -4.84217833E+00 -3.38543713E-01 -1.66898451E+00 -4.84217833E+00 -3.38543713E-01
 -1.66898451E+00 -4.84217833E+00 -3.38543713E-01 -1.66898451E+00 -4.83464259E+00
 -3.26754177E-01  1.67934778E+00 -4.83464259E+00 -3.26754177E-01  1.67934778E+00
 -4.83464259E+00 -3.26754177E-01  1.67934778E+00 -3.63269070E+00  2.30281564E+00
 -7.81550732E-03 -3.63269070E+00  2.30281564E+00 -7.81550732E-03 -3.63269070E+00
  2.30281564E+00 -7.81550732E-03
Alpha Orbital Energies                     R   N=         106
 -1.01805838E+01 -1.01799337E+01 -1.01756959E+01 -1.01754536E+01 -7.89085013E-01
 -7.18980760E-01 -6.27822852E-01 -5.72587430E-01 -4.61554245E-01 -4.20642845E-01
 -4.16582874E-01 -4.07444632E-01 -3.62881080E-01 -3.48440188E-01 -3.32786589E-01
 -3.20405572E-01 -3.15167992E-01  6.10826602E-02  7.99475281E-02  9.64915390E-02
  9.84727810E-02  1.25429274E-01  1.38260810E-01  1.45675309E-01  1.49290628E-01
  1.59534559E-01  2.01956439E-01  2.25742970E-01  2.33099461E-01  2.67259164E-01
  4.03715674E-01  4.06533529E-01  4.21350034E-01  4.22825544E-01  4.58631913E-01
  5.28819659E-01  5.51481821E-01  5.72181082E-01  6.01251997E-01  6.27103233E-01
  6.28636683E-01  6.40419395E-01  6.45339611E-01  6.53438338E-01  6.65177948E-01
  6.68188428E-01  6.73377353E-01  6.75429857E-01  6.96981537E-01  7.06815074E-01
  7.22198330E-01  7.50867268E-01  8.78712444E-01  8.84763480E-01  9.61256770E-01
  1.09413218E+00  1.18566302E+00  1.21317998E+00  1.22384235E+00  1.23051269E+00
  1.30871355E+00  1.34854622E+00  1.41483358E+00  1.42651643E+00  1.43044243E+00
  1.49523619E+00  1.50622882E+00  1.57289009E+00  1.60149904E+00  1.61910179E+00
  1.63500950E+00  1.63524394E+00  1.65129494E+00  1.66735050E+00  1.68842066E+00
  1.69594440E+00  1.70129537E+00  1.71953179E+00  1.75958338E+00  1.78025642E+00
  1.79068314E+00  1.81032703E+00  1.84211989E+00  1.87913172E+00  1.97812817E+00
  2.00463992E+00  2.04858739E+00  2.07348332E+00  2.07552681E+00  2.08855932E+00
  2.13374706E+00  2.20732483E+00  2.20988479E+00  2.28572663E+00  2.33064396E+00
  2.36058478E+00  2.40689541E+00  2.41275641E+00  2.41327550E+00  2.43104534E+00
  2.49499240E+00  2.49744007E+00  2.54318873E+00  2.62868077E+00  2.64901783E+00
  2.71944720E+00
Alpha MO coefficients                      R   N=       11236
  3.57441460E-04 -3.68041807E-04  8.08834912E-04 -2.37979011E-04  1.22323581E-04
 -7.43726159E-07  1.92361969E-05 -1.74897375E-04  1.21571792E-06 -1.12742205E-04
  4.92723952E-07 -3.75980867E-07 -3.30789410E-04  1.70942367E-04  1.28492872E-01
  3.41444436E-03  3.54811772E-03 -1.23959607E-04 -3.98707545E-04 -2.71959375E-07
  2.28278249E-03  1.55723714E-03  2.32494712E-06  5.83067109E-04  4.82503134E-07
 -2.29770790E-07 -1.70662418E-04 -8.77250713E-04  9.88435928E-01  3.09930478E-02
 -2.28342482E-02 -4.22223980E-05  8.90067875E-04  3.45762742E-07 -8.80192582E-04
  3.51353688E-03 -3.49798542E-06  9.83425062E-04 -3.87191090E-07 -1.13989152E-07
 -6.69542319E-04 -3.37348949E-04  1.75052619E-02 -2.70815684E-05  6.45546792E-03
  3.43422529E-04 -1.37072832E-04  1.21530684E-07 -2.48641105E-03  1.07792013E-03
 -1.29975203E-06  4.57886721E-04 -9.26523840E-07  2.69305029E-07 -6.04621795E-04
  7.77344418E-04 -6.21789978E-04  6.55001048E-04  1.27474792E-04 -6.47214024E-05
  2.59061123E-04 -6.21002774E-04  6.57285979E-04  1.28075325E-04 -6.37932799E-05
 -2.59188061E-04 -1.22103660E-03  2.07601684E-03 -1.69405260E-04  9.91923822E-04
 -1.68779141E-03 -1.22000017E-03  2.07763263E-03 -1.70336964E-04  9.91676796E-04
  1.68791628E-03 -6.76371125E-04 -1.91169648E-04  2.40352996E-04  6.40709782E-05
  3.33573888E-10 -5.22025774E-04  2.71846121E-04 -4.91269718E-05 -4.23140132E-06
  7.45679770E-05 -5.21929588E-04  2.71205100E-04 -4.95016351E-05 -4.24684943E-06
 -7.48008290E-05 -1.65847975E-05 -1.01785815E-04 -1.09641638E-06  5.22877305E-05
  5.32005121E-06 -1.53529706E-05 -1.06013180E-04 -1.73253198E-06  5.20366460E-05
 -6.58477321E-06 -2.10236728E-04 -1.47011443E-04  3.72043906E-05  9.79406542E-05
 -1.04595133E-06  1.71891104E-02  2.97542883E-06  6.61120888E-03 -2.57517951E-04
  9.13703388E-05  4.40317693E-07  2.80530294E-03  8.27628850E-05 -1.10022147E-05
  6.08857895E-04  1.38890976E-06 -2.92672992E-07 -5.80954905E-04  7.14828318E-04
  9.88463566E-01  3.12386167E-02 -2.49828559E-02  1.44852093E-04 -8.40610504E-04
 -9.31498274E-07 -3.81469930E-04 -4.35851839E-03  2.14127900E-06  8.62927734E-04
 -3.20629890E-07 -7.29245312E-07 -5.95379770E-04 -1.31463247E-04 -1.28470377E-01
 -4.68734134E-03  1.00138861E-02  1.41104787E-04  1.63391882E-04  5.85897857E-08
 -2.53129133E-03 -2.68353325E-03  1.55486685E-07  3.53303598E-04  7.16408418E-08
  1.94473739E-08  3.57970315E-05 -7.40781154E-04 -4.67284162E-03 -4.68399461E-04
 -5.38469147E-04  2.35447166E-04  4.60514642E-05 -1.01139340E-07  2.38623750E-04
 -4.32056067E-04  1.24553867E-06 -2.05833755E-04  1.38772526E-07 -1.45602474E-07
 -9.50590910E-05  3.91842368E-05 -1.05978404E-03  1.99422171E-03  1.98449866E-04
 -9.80835616E-04  1.66408272E-03 -1.05852446E-03  1.99749514E-03  1.97527730E-04
 -9.78297254E-04 -1.66573976E-03 -3.53387550E-04  2.19088040E-04 -6.91718542E-05
 -1.86083959E-04  1.92863644E-04 -3.53194510E-04  2.16714558E-04 -6.91540804E-05
 -1.86037411E-04 -1.92532665E-04  1.88296946E-05  4.74551736E-04 -3.95123062E-05
  1.77071108E-05 -1.77661453E-07  2.35610470E-05 -4.20571080E-04  1.21047039E-04
  5.62658234E-05  2.07076632E-05  2.38612308E-05 -4.20160444E-04  1.21084668E-04
  5.62664036E-05 -2.07852982E-05 -6.15450887E-04  3.48516418E-04 -1.39874904E-04
 -5.71189210E-05 -5.19822299E-05 -6.13919022E-04  3.57941735E-04 -1.37443826E-04
 -5.65143864E-05  5.28219871E-05 -6.93097863E-04 -7.37250408E-04 -1.35196833E-05
  1.50679954E-04 -4.32852000E-07 -1.40835396E-02 -7.99331443E-04  2.76503497E-03
  2.14248324E-05 -8.22562929E-06 -6.23159509E-09  1.26931065E-03 -7.22760954E-04
 -1.64210906E-07 -5.75410710E-05  3.52317767E-08 -1.27002010E-08  2.46191981E-05
 -8.29813940E-05  2.54041425E-03 -3.85951704E-04  4.11192549E-05 -2.74251447E-04
  2.32529226E-05  1.10328707E-07  2.95611626E-03 -6.49146867E-04 -2.22288365E-06
 -1.62073061E-04  1.56700772E-07 -3.86066860E-07 -6.63008180E-05 -1.38050312E-05
 -1.79607242E-02 -7.57210512E-04  3.98427344E-03 -3.01452345E-04  2.45174531E-04
 -1.39296620E-07  2.42602572E-03 -2.38647126E-04  1.74160924E-06  6.28646537E-04
 -9.65139804E-07  6.57844064E-08 -5.55252747E-04  5.62505438E-04  9.96535219E-01
  3.10109616E-02 -1.84147888E-02  7.23481286E-04 -4.14936726E-04  1.31316800E-07
  2.79133900E-03 -2.86513879E-04  1.01791605E-06  3.74145852E-04 -2.63146864E-07
  5.54140310E-08 -4.48875287E-04  5.43687535E-04 -2.16900169E-04 -3.21253962E-04
 -2.21612453E-04  6.80284703E-05  6.71648437E-05 -2.16323549E-04 -3.24083768E-04
 -2.22191877E-04  6.79662619E-05 -6.68500008E-05 -3.94217683E-04  1.86353219E-04
  2.75215336E-05 -3.69779975E-05 -3.53403685E-05 -3.94111176E-04  1.85927781E-04
  2.80566627E-05 -3.71020429E-05  3.53847266E-05 -1.47961848E-03  1.54994926E-03
  1.36783946E-03  1.47126467E-03 -1.00461176E-06 -1.14390141E-03  2.28795690E-03
  7.58866707E-05 -1.12742862E-03  1.57171360E-03 -1.14358366E-03  2.28800396E-03
  7.61924264E-05 -1.12938526E-03 -1.57032442E-03 -1.00788645E-04  7.11351468E-05
 -4.93901426E-06  2.93931376E-05  3.29845321E-05 -1.00406070E-04  6.93352237E-05
 -5.36448133E-06  2.92328306E-05 -3.30854593E-05 -7.60553568E-05  1.93928563E-04
 -1.96718757E-06 -2.01976222E-05  2.85465435E-07  9.96539033E-01  3.08546173E-02
 -1.80783040E-02 -8.29383017E-04  3.89760816E-04  5.04873058E-07 -2.25340877E-03
  9.97893865E-04 -1.18224497E-06  4.60358921E-04  5.50142117E-07 -1.39303113E-06
 -4.19520343E-04  5.17224269E-04 -1.70500908E-02 -7.52000805E-04  3.92076987E-03
  2.78687753E-04 -2.34459637E-04 -2.74229288E-07 -2.61796251E-03  1.12486146E-04