Butano diedro spostato da usare per armonia                             
Freq      RB3LYP                                                      CC-pVDZ             
Number of atoms                            I               14
Charge                                     I                0
Multiplicity                               I                1
Number of electrons                        I               34
Number of alpha electrons                  I               17
Number of beta electrons                   I               17
Number of basis functions                  I              106
Number of independant functions            I              106
Number of point charges in /Mol/           I                0
Number of translation vectors              I                0
Number of symbols in /Mol/                 I                0
Info1-9                                    I   N=           9
          27          25        1001           0           0         100
           6          18        -501
Num ILSW                                   I              100
ILSW                                       I   N=         100
           0           0           0           0           2           0
           0           0           3           0         402      200000
           5           0           0           0           0           0
           0      800000           1           0           1           0
           1           0           0           0     1000000           0
           0           0           0           0          -1           0
           0           0           0           0           0           0
           0           0           0           1           0           0
           0           0           1      720000      810000           0
           0           0           0           0           0           0
           0           0           0           0           0           0
           0           0           0           0           0           0
           0           0           0           0           0           0
           0           0           0           0           0           0
           0           0           0           0           0           0
           0           0           0           0           0           0
           0           0           0           0
Number of contracted shells                I               54
Highest angular momentum                   I                2
Largest degree of contraction              I                7
Number of primitive shells                 I              130
Pure/Cartesian d shells                    I                0
Pure/Cartesian f shells                    I                0
Virial Ratio                               R      2.009416015850603E+00
SCF Energy                                 R     -1.584534073920921E+02
Total Energy                               R     -1.584534073920921E+02
RMS Force                                  R      1.879281911813233E-03
RMS Density                                R      1.761600725553279E-09
Atomic numbers                             I   N=          14
           6           6           6           6           1           1
           1           1           1           1           1           1
           1           1
Nuclear charges                            R   N=          14
  6.00000000E+00  6.00000000E+00  6.00000000E+00  6.00000000E+00  1.00000000E+00
  1.00000000E+00  1.00000000E+00  1.00000000E+00  1.00000000E+00  1.00000000E+00
  1.00000000E+00  1.00000000E+00  1.00000000E+00  1.00000000E+00
Current cartesian coordinates              R   N=          42
 -2.81331801E+00 -1.18734627E+00  1.39428913E-01 -1.43609656E+00  1.32540165E+00
 -2.78939045E-01  1.43609646E+00  1.32540299E+00  2.78939161E-01  2.81331855E+00
 -1.18734712E+00 -1.39429011E-01 -1.72944704E+00  1.87702334E+00 -2.27397672E+00
 -2.34359582E+00  2.82457789E+00  8.51431159E-01  2.34359479E+00  2.82457832E+00
 -8.51432441E-01  1.72944743E+00  1.87702372E+00  2.27397686E+00  4.84935477E+00
 -9.78165888E-01  2.47685142E-01  2.09181782E+00 -2.68445361E+00  1.11318973E+00
  2.62334298E+00 -1.86731516E+00 -2.10302905E+00 -4.84935240E+00 -9.78168613E-01
 -2.47697186E-01 -2.09181135E+00 -2.68445847E+00 -1.11317981E+00 -2.62335380E+00
 -1.86730901E+00  2.10303221E+00
Atom Types                                 C   N=          14
                                                            
                                                            
                                                
Int Atom Types                             I   N=          14
           0           0           0           0           0           0
           0           0           0           0           0           0
           0           0
Force Field                                I                0
MM charges                                 R   N=          14
  0.00000000E+00  0.00000000E+00  0.00000000E+00  0.00000000E+00  0.00000000E+00
  0.00000000E+00  0.00000000E+00  0.00000000E+00  0.00000000E+00  0.00000000E+00
  0.00000000E+00  0.00000000E+00  0.00000000E+00  0.00000000E+00
Integer atomic weights                     I   N=          14
          12          12          12          12           1           1
           1           1           1           1           1           1
           1           1
Real atomic weights                        R   N=          14
  1.20000000E+01  1.20000000E+01  1.20000000E+01  1.20000000E+01  1.00782504E+00
  1.00782504E+00  1.00782504E+00  1.00782504E+00  1.00782504E+00  1.00782504E+00
  1.00782504E+00  1.00782504E+00  1.00782504E+00  1.00782504E+00
Atom residue info                          I   N=          14
           0           0           0           0           0           0
           0           0           0           0           0           0
           0           0
Atom fragment info                         I   N=          14
           0           0           0           0           0           0
           0           0           0           0           0           0
           0           0
Atom residue num                           I   N=          14
           0           0           0           0           0           0
           0           0           0           0           0           0
           0           0
Nuclear spins                              I   N=          14
           0           0           0           0           1           1
           1           1           1           1           1           1
           1           1
Nuclear ZEff                               R   N=          14
 -3.60000000E+00 -3.60000000E+00 -3.60000000E+00 -3.60000000E+00 -1.00000000E+00
 -1.00000000E+00 -1.00000000E+00 -1.00000000E+00 -1.00000000E+00 -1.00000000E+00
 -1.00000000E+00 -1.00000000E+00 -1.00000000E+00 -1.00000000E+00
Nuclear QMom                               R   N=          14
  0.00000000E+00  0.00000000E+00  0.00000000E+00  0.00000000E+00  0.00000000E+00
  0.00000000E+00  0.00000000E+00  0.00000000E+00  0.00000000E+00  0.00000000E+00
  0.00000000E+00  0.00000000E+00  0.00000000E+00  0.00000000E+00
Nuclear GFac                               R   N=          14
  0.00000000E+00  0.00000000E+00  0.00000000E+00  0.00000000E+00  2.79284600E+00
  2.79284600E+00  2.79284600E+00  2.79284600E+00  2.79284600E+00  2.79284600E+00
  2.79284600E+00  2.79284600E+00  2.79284600E+00  2.79284600E+00
MicOpt                                     I   N=          14
          -1          -1          -1          -1          -1          -1
          -1          -1          -1          -1          -1          -1
          -1          -1
Constraint Structure                       R   N=          42
 -2.81331801E+00 -1.18734627E+00  1.39428913E-01 -1.43609656E+00  1.32540165E+00
 -2.78939045E-01  1.43609646E+00  1.32540299E+00  2.78939161E-01  2.81331855E+00
 -1.18734712E+00 -1.39429011E-01 -1.72944704E+00  1.87702334E+00 -2.27397672E+00
 -2.34359582E+00  2.82457789E+00  8.51431159E-01  2.34359479E+00  2.82457832E+00
 -8.51432441E-01  1.72944743E+00  1.87702372E+00  2.27397686E+00  4.84935477E+00
 -9.78165888E-01  2.47685142E-01  2.09181782E+00 -2.68445361E+00  1.11318973E+00
  2.62334298E+00 -1.86731516E+00 -2.10302905E+00 -4.84935240E+00 -9.78168613E-01
 -2.47697186E-01 -2.09181135E+00 -2.68445847E+00 -1.11317981E+00 -2.62335380E+00
 -1.86730901E+00  2.10303221E+00
ONIOM Charges                              I   N=          16
           0           0           0           0           0           0
           0           0           0           0           0           0
           0           0           0           0
ONIOM Multiplicities                       I   N=          16
           1           0           0           0           0           0
           0           0           0           0           0           0
           0           0           0           0
Atom Layers                                I   N=          14
           0           0           0           0           0           0
           0           0           0           0           0           0
           0           0
Atom Modifiers                             I   N=          14
           0           0           0           0           0           0
           0           0           0           0           0           0
           0           0
Atom Modified Types                        C   N=          14
                                                            
                                                            
                                                
Int Atom Modified Types                    I   N=          14
           0           0           0           0           0           0
           0           0           0           0           0           0
           0           0
Link Atoms                                 I   N=          14
           0           0           0           0           0           0
           0           0           0           0           0           0
           0           0
Atom Modified MM Charges                   R   N=          14
  0.00000000E+00  0.00000000E+00  0.00000000E+00  0.00000000E+00  0.00000000E+00
  0.00000000E+00  0.00000000E+00  0.00000000E+00  0.00000000E+00  0.00000000E+00
  0.00000000E+00  0.00000000E+00  0.00000000E+00  0.00000000E+00
Link Distances                             R   N=          56
  0.00000000E+00  0.00000000E+00  0.00000000E+00  0.00000000E+00  0.00000000E+00
  0.00000000E+00  0.00000000E+00  0.00000000E+00  0.00000000E+00  0.00000000E+00
  0.00000000E+00  0.00000000E+00  0.00000000E+00  0.00000000E+00  0.00000000E+00
  0.00000000E+00  0.00000000E+00  0.00000000E+00  0.00000000E+00  0.00000000E+00
  0.00000000E+00  0.00000000E+00  0.00000000E+00  0.00000000E+00  0.00000000E+00
  0.00000000E+00  0.00000000E+00  0.00000000E+00  0.00000000E+00  0.00000000E+00
  0.00000000E+00  0.00000000E+00  0.00000000E+00  0.00000000E+00  0.00000000E+00
  0.00000000E+00  0.00000000E+00  0.00000000E+00  0.00000000E+00  0.00000000E+00
  0.00000000E+00  0.00000000E+00  0.00000000E+00  0.00000000E+00  0.00000000E+00
  0.00000000E+00  0.00000000E+00  0.00000000E+00  0.00000000E+00  0.00000000E+00
  0.00000000E+00  0.00000000E+00  0.00000000E+00  0.00000000E+00  0.00000000E+00
  0.00000000E+00
MxBond                                     I                4
NBond                                      I   N=          14
           4           4           4           4           1           1
           1           1           1           1           1           1
           1           1
IBond                                      I   N=          56
           2          12          13          14           1           3
           5           6           2           4           7           8
           3           9          10          11           2           0
           0           0           2           0           0           0
           3           0           0           0           3           0
           0           0           4           0           0           0
           4           0           0           0           4           0
           0           0           1           0           0           0
           1           0           0           0           1           0
           0           0
RBond                                      R   N=          56
  1.00000000E+00  1.00000000E+00  1.00000000E+00  1.00000000E+00  1.00000000E+00
  1.00000000E+00  1.00000000E+00  1.00000000E+00  1.00000000E+00  1.00000000E+00
  1.00000000E+00  1.00000000E+00  1.00000000E+00  1.00000000E+00  1.00000000E+00
  1.00000000E+00  1.00000000E+00  0.00000000E+00  0.00000000E+00  0.00000000E+00
  1.00000000E+00  0.00000000E+00  0.00000000E+00  0.00000000E+00  1.00000000E+00
  0.00000000E+00  0.00000000E+00  0.00000000E+00  1.00000000E+00  0.00000000E+00
  0.00000000E+00  0.00000000E+00  1.00000000E+00  0.00000000E+00  0.00000000E+00
  0.00000000E+00  1.00000000E+00  0.00000000E+00  0.00000000E+00  0.00000000E+00
  1.00000000E+00  0.00000000E+00  0.00000000E+00  0.00000000E+00  1.00000000E+00
  0.00000000E+00  0.00000000E+00  0.00000000E+00  1.00000000E+00  0.00000000E+00
  0.00000000E+00  0.00000000E+00  1.00000000E+00  0.00000000E+00  0.00000000E+00
  0.00000000E+00
Shell types                                I   N=          54
           0           0           0           1           1          -2
           0           0           0           1           1          -2
           0           0           0           1           1          -2
           0           0           0           1           1          -2
           0           0           1           0           0           1
           0           0           1           0           0           1
           0           0           1           0           0           1
           0           0           1           0           0           1
           0           0           1           0           0           1
Number of primitives per shell             I   N=          54
           7           7           1           3           1           1
           7           7           1           3           1           1
           7           7           1           3           1           1
           7           7           1           3           1           1
           3           1           1           3           1           1
           3           1           1           3           1           1
           3           1           1           3           1           1
           3           1           1           3           1           1
           3           1           1           3           1           1
Shell to atom map                          I   N=          54
           1           1           1           1           1           1
           2           2           2           2           2           2
           3           3           3           3           3           3
           4           4           4           4           4           4
           5           5           5           6           6           6
           7           7           7           8           8           8
           9           9           9          10          10          10
          11          11          11          12          12          12
          13          13          13          14          14          14
Primitive exponents                        R   N=         130
  6.66500000E+03  1.00000000E+03  2.28000000E+02  6.47100000E+01  2.10600000E+01
  7.49500000E+00  2.79700000E+00  6.66500000E+03  1.00000000E+03  6.47100000E+01
  2.10600000E+01  7.49500000E+00  2.79700000E+00  5.21500000E-01  1.59600000E-01
  9.43900000E+00  2.00200000E+00  5.45600000E-01  1.51700000E-01  5.50000000E-01
  6.66500000E+03  1.00000000E+03  2.28000000E+02  6.47100000E+01  2.10600000E+01
  7.49500000E+00  2.79700000E+00  6.66500000E+03  1.00000000E+03  6.47100000E+01
  2.10600000E+01  7.49500000E+00  2.79700000E+00  5.21500000E-01  1.59600000E-01
  9.43900000E+00  2.00200000E+00  5.45600000E-01  1.51700000E-01  5.50000000E-01
  6.66500000E+03  1.00000000E+03  2.28000000E+02  6.47100000E+01  2.10600000E+01
  7.49500000E+00  2.79700000E+00  6.66500000E+03  1.00000000E+03  6.47100000E+01
  2.10600000E+01  7.49500000E+00  2.79700000E+00  5.21500000E-01  1.59600000E-01
  9.43900000E+00  2.00200000E+00  5.45600000E-01  1.51700000E-01  5.50000000E-01
  6.66500000E+03  1.00000000E+03  2.28000000E+02  6.47100000E+01  2.10600000E+01
  7.49500000E+00  2.79700000E+00  6.66500000E+03  1.00000000E+03  6.47100000E+01
  2.10600000E+01  7.49500000E+00  2.79700000E+00  5.21500000E-01  1.59600000E-01
  9.43900000E+00  2.00200000E+00  5.45600000E-01  1.51700000E-01  5.50000000E-01
  1.30100000E+01  1.96200000E+00  4.44600000E-01  1.22000000E-01  7.27000000E-01
  1.30100000E+01  1.96200000E+00  4.44600000E-01  1.22000000E-01  7.27000000E-01
  1.30100000E+01  1.96200000E+00  4.44600000E-01  1.22000000E-01  7.27000000E-01
  1.30100000E+01  1.96200000E+00  4.44600000E-01  1.22000000E-01  7.27000000E-01
  1.30100000E+01  1.96200000E+00  4.44600000E-01  1.22000000E-01  7.27000000E-01
  1.30100000E+01  1.96200000E+00  4.44600000E-01  1.22000000E-01  7.27000000E-01
  1.30100000E+01  1.96200000E+00  4.44600000E-01  1.22000000E-01  7.27000000E-01
  1.30100000E+01  1.96200000E+00  4.44600000E-01  1.22000000E-01  7.27000000E-01
  1.30100000E+01  1.96200000E+00  4.44600000E-01  1.22000000E-01  7.27000000E-01
  1.30100000E+01  1.96200000E+00  4.44600000E-01  1.22000000E-01  7.27000000E-01
Contraction coefficients                   R   N=         130
  6.93516317E-04  5.34150243E-03  2.71366714E-02  1.01992385E-01  2.75508636E-01
  4.51086433E-01  2.87565745E-01  6.28313219E-07 -5.48480000E-05 -3.63137064E-03
 -1.17983699E-02 -1.10909885E-01 -1.34742247E-01  1.10175849E+00  1.00000000E+00
  5.69792516E-02  3.13207212E-01  7.60376742E-01  1.00000000E+00  1.00000000E+00
  6.93516317E-04  5.34150243E-03  2.71366714E-02  1.01992385E-01  2.75508636E-01
  4.51086433E-01  2.87565745E-01  6.28313219E-07 -5.48480000E-05 -3.63137064E-03
 -1.17983699E-02 -1.10909885E-01 -1.34742247E-01  1.10175849E+00  1.00000000E+00
  5.69792516E-02  3.13207212E-01  7.60376742E-01  1.00000000E+00  1.00000000E+00
  6.93516317E-04  5.34150243E-03  2.71366714E-02  1.01992385E-01  2.75508636E-01
  4.51086433E-01  2.87565745E-01  6.28313219E-07 -5.48480000E-05 -3.63137064E-03
 -1.17983699E-02 -1.10909885E-01 -1.34742247E-01  1.10175849E+00  1.00000000E+00
  5.69792516E-02  3.13207212E-01  7.60376742E-01  1.00000000E+00  1.00000000E+00
  6.93516317E-04  5.34150243E-03  2.71366714E-02  1.01992385E-01  2.75508636E-01
  4.51086433E-01  2.87565745E-01  6.28313219E-07 -5.48480000E-05 -3.63137064E-03
 -1.17983699E-02 -1.10909885E-01 -1.34742247E-01  1.10175849E+00  1.00000000E+00
  5.69792516E-02  3.13207212E-01  7.60376742E-01  1.00000000E+00  1.00000000E+00
  3.34987264E-02  2.34800801E-01  8.13682958E-01  1.00000000E+00  1.00000000E+00
  3.34987264E-02  2.34800801E-01  8.13682958E-01  1.00000000E+00  1.00000000E+00
  3.34987264E-02  2.34800801E-01  8.13682958E-01  1.00000000E+00  1.00000000E+00
  3.34987264E-02  2.34800801E-01  8.13682958E-01  1.00000000E+00  1.00000000E+00
  3.34987264E-02  2.34800801E-01  8.13682958E-01  1.00000000E+00  1.00000000E+00
  3.34987264E-02  2.34800801E-01  8.13682958E-01  1.00000000E+00  1.00000000E+00
  3.34987264E-02  2.34800801E-01  8.13682958E-01  1.00000000E+00  1.00000000E+00
  3.34987264E-02  2.34800801E-01  8.13682958E-01  1.00000000E+00  1.00000000E+00
  3.34987264E-02  2.34800801E-01  8.13682958E-01  1.00000000E+00  1.00000000E+00
  3.34987264E-02  2.34800801E-01  8.13682958E-01  1.00000000E+00  1.00000000E+00
Coordinates of each shell                  R   N=         162
 -2.81331801E+00 -1.18734627E+00  1.39428913E-01 -2.81331801E+00 -1.18734627E+00
  1.39428913E-01 -2.81331801E+00 -1.18734627E+00  1.39428913E-01 -2.81331801E+00
 -1.18734627E+00  1.39428913E-01 -2.81331801E+00 -1.18734627E+00  1.39428913E-01
 -2.81331801E+00 -1.18734627E+00  1.39428913E-01 -1.43609656E+00  1.32540165E+00
 -2.78939045E-01 -1.43609656E+00  1.32540165E+00 -2.78939045E-01 -1.43609656E+00
  1.32540165E+00 -2.78939045E-01 -1.43609656E+00  1.32540165E+00 -2.78939045E-01
 -1.43609656E+00  1.32540165E+00 -2.78939045E-01 -1.43609656E+00  1.32540165E+00
 -2.78939045E-01  1.43609646E+00  1.32540299E+00  2.78939161E-01  1.43609646E+00
  1.32540299E+00  2.78939161E-01  1.43609646E+00  1.32540299E+00  2.78939161E-01
  1.43609646E+00  1.32540299E+00  2.78939161E-01  1.43609646E+00  1.32540299E+00
  2.78939161E-01  1.43609646E+00  1.32540299E+00  2.78939161E-01  2.81331855E+00
 -1.18734712E+00 -1.39429011E-01  2.81331855E+00 -1.18734712E+00 -1.39429011E-01
  2.81331855E+00 -1.18734712E+00 -1.39429011E-01  2.81331855E+00 -1.18734712E+00
 -1.39429011E-01  2.81331855E+00 -1.18734712E+00 -1.39429011E-01  2.81331855E+00
 -1.18734712E+00 -1.39429011E-01 -1.72944704E+00  1.87702334E+00 -2.27397672E+00
 -1.72944704E+00  1.87702334E+00 -2.27397672E+00 -1.72944704E+00  1.87702334E+00
 -2.27397672E+00 -2.34359582E+00  2.82457789E+00  8.51431159E-01 -2.34359582E+00
  2.82457789E+00  8.51431159E-01 -2.34359582E+00  2.82457789E+00  8.51431159E-01
  2.34359479E+00  2.82457832E+00 -8.51432441E-01  2.34359479E+00  2.82457832E+00
 -8.51432441E-01  2.34359479E+00  2.82457832E+00 -8.51432441E-01  1.72944743E+00
  1.87702372E+00  2.27397686E+00  1.72944743E+00  1.87702372E+00  2.27397686E+00
  1.72944743E+00  1.87702372E+00  2.27397686E+00  4.84935477E+00 -9.78165888E-01
  2.47685142E-01  4.84935477E+00 -9.78165888E-01  2.47685142E-01  4.84935477E+00
 -9.78165888E-01  2.47685142E-01  2.09181782E+00 -2.68445361E+00  1.11318973E+00
  2.09181782E+00 -2.68445361E+00  1.11318973E+00  2.09181782E+00 -2.68445361E+00
  1.11318973E+00  2.62334298E+00 -1.86731516E+00 -2.10302905E+00  2.62334298E+00
 -1.86731516E+00 -2.10302905E+00  2.62334298E+00 -1.86731516E+00 -2.10302905E+00
 -4.84935240E+00 -9.78168613E-01 -2.47697186E-01 -4.84935240E+00 -9.78168613E-01
 -2.47697186E-01 -4.84935240E+00 -9.78168613E-01 -2.47697186E-01 -2.09181135E+00
 -2.68445847E+00 -1.11317981E+00 -2.09181135E+00 -2.68445847E+00 -1.11317981E+00
 -2.09181135E+00 -2.68445847E+00 -1.11317981E+00 -2.62335380E+00 -1.86730901E+00
  2.10303221E+00 -2.62335380E+00 -1.86730901E+00  2.10303221E+00 -2.62335380E+00
 -1.86730901E+00  2.10303221E+00
Alpha Orbital Energies                     R   N=         106
 -1.01805129E+01 -1.01803637E+01 -1.01753945E+01 -1.01753744E+01 -7.88179516E-01
 -7.15788475E-01 -6.40503528E-01 -5.57417881E-01 -4.57679485E-01 -4.46651801E-01
 -4.07526903E-01 -3.87043377E-01 -3.74311655E-01 -3.57393179E-01 -3.26944968E-01
 -3.21882957E-01 -3.08711376E-01  5.46266898E-02  9.16420167E-02  9.65558196E-02
  1.04034149E-01  1.30367363E-01  1.30639998E-01  1.49572289E-01  1.56829789E-01
  1.57161048E-01  1.88739606E-01  2.02741616E-01  2.35974061E-01  2.83815180E-01
  3.98266855E-01  4.03231865E-01  4.32865997E-01  4.44855386E-01  4.64442542E-01
  4.96583635E-01  5.17968993E-01  5.83422147E-01  5.98612423E-01  6.05367482E-01
  6.33518376E-01  6.40249688E-01  6.47594524E-01  6.51720498E-01  6.61686001E-01
  6.72183858E-01  6.81496645E-01  6.87755701E-01  7.05077812E-01  7.09680602E-01
  7.43497104E-01  8.14636009E-01  8.86762477E-01  8.87498104E-01  9.64784282E-01
  1.07705108E+00  1.15884452E+00  1.20604112E+00  1.21109058E+00  1.24659558E+00
  1.27847157E+00  1.33129877E+00  1.41100945E+00  1.43188490E+00  1.43817000E+00
  1.54570185E+00  1.55720883E+00  1.58269730E+00  1.59808217E+00  1.60883235E+00
  1.62855272E+00  1.64039521E+00  1.67386582E+00  1.67447522E+00  1.68233436E+00
  1.69463290E+00  1.69547227E+00  1.72480467E+00  1.76025520E+00  1.76044049E+00
  1.78449398E+00  1.79103462E+00  1.81766143E+00  1.88497563E+00  1.94509847E+00
  1.96752088E+00  2.04198169E+00  2.06786420E+00  2.08915419E+00  2.11721437E+00
  2.17338672E+00  2.21638901E+00  2.22948601E+00  2.25050755E+00  2.28274196E+00
  2.29379563E+00  2.40435861E+00  2.41251844E+00  2.45706143E+00  2.46783364E+00
  2.51975516E+00  2.52583926E+00  2.60981341E+00  2.61178726E+00  2.66512074E+00
  2.72084244E+00
Alpha MO coefficients                      R   N=       11236
  1.06422890E-02 -3.59339711E-04  4.59055951E-03 -3.00569645E-04 -3.01593914E-04
  5.70551473E-06  1.50198437E-03  1.69910588E-03 -1.52154437E-04  2.05238440E-04
  1.97432706E-04  1.06028650E-04  4.81784588E-04 -5.87161212E-04  7.04764999E-01
  2.17264241E-02 -1.21927086E-02 -5.02539757E-04  5.82563007E-04 -2.67670345E-04
  6.34623052E-04  1.98902033E-03 -2.12693211E-04  9.22632482E-04 -3.50819581E-04
  2.47417831E-04 -8.20704132E-04 -5.08338776E-04  7.04889773E-01  2.17304212E-02
 -1.21964689E-02  5.02569836E-04  5.82633894E-04  2.67703780E-04 -6.34047839E-04
  1.98952739E-03  2.12880398E-04  9.22680466E-04 -3.50804603E-04 -2.47448227E-04
 -8.20650822E-04  5.08401125E-04  1.06445872E-02 -3.59271751E-04  4.59133496E-03
  3.00555544E-04 -3.01607875E-04 -5.71639531E-06 -1.50209350E-03  1.69941778E-03
  1.52224626E-04  2.05317955E-04  1.97433513E-04 -1.06067533E-04  4.81841643E-04
  5.87233477E-04 -1.15852376E-03  1.86177708E-03 -4.50464938E-05  2.58485911E-04
 -1.38655231E-03 -1.27037820E-03  1.17696645E-03 -6.60826153E-04  1.03199327E-03
  9.07562282E-04 -1.27047078E-03  1.17719029E-03  6.60918497E-04  1.03214536E-03
 -9.07714748E-04 -1.15858921E-03  1.86197821E-03  4.50774247E-05  2.58521532E-04
  1.38679192E-03 -4.74594614E-04  3.08953120E-04  1.71303376E-04 -5.85149643E-05
  2.43482813E-05 -3.53674770E-04 -1.01126902E-04  1.08277811E-04 -1.91748808E-05
  7.79030061E-05 -5.01003926E-04  3.43034406E-04  6.13912628E-05  2.17732309E-05
 -2.71648739E-06 -4.74522807E-04  3.09054920E-04 -1.71279717E-04 -5.85079963E-05
 -2.43495163E-05 -3.53603816E-04 -1.01252844E-04 -1.08306505E-04 -1.91824981E-05
 -7.79071222E-05 -5.00947405E-04  3.42970033E-04 -6.14105744E-05  2.17716138E-05
  2.70466963E-06  1.34788198E-02  3.87037225E-04  4.40124517E-03  7.12956184E-05
 -9.72743933E-05  5.89124817E-05  6.16027016E-04  1.74453768E-03 -4.05176674E-04
  4.59013333E-04  9.09068980E-06  2.23895473E-04  3.22833751E-04 -4.25456105E-04
  7.04881450E-01  2.25813610E-02 -2.12260661E-02 -1.76929892E-04  3.89462766E-04
 -1.89746591E-04 -3.22894276E-03  2.85902357E-03 -1.04352371E-03  2.49957123E-04
  8.38221044E-05  1.60528061E-04  2.90732297E-04 -3.47872677E-04 -7.04756678E-01
 -2.25775139E-02  2.12239030E-02 -1.76840071E-04 -3.89360882E-04 -1.89698691E-04
 -3.22905426E-03 -2.85867621E-03 -1.04349138E-03 -2.49795765E-04 -8.38854265E-05
  1.60486493E-04 -2.90877838E-04 -3.47785213E-04 -1.34768785E-02 -3.87100434E-04
 -4.40043385E-03  7.13507784E-05  9.72180466E-05  5.89098032E-05  6.15758712E-04
 -1.74423919E-03 -4.05137550E-04 -4.58975335E-04 -9.05563542E-06  2.23876617E-04
 -3.22746038E-04 -4.25350931E-04 -3.57956766E-04  1.13860101E-03 -1.69235756E-04
  2.00472457E-04 -1.34926135E-03 -5.16795965E-04  1.26356896E-03 -5.24756399E-04
  8.57460866E-04  8.55027426E-04  5.16572734E-04 -1.26336270E-03 -5.24639423E-04
 -8.57277922E-04  8.54868521E-04  3.57752946E-04 -1.13826888E-03 -1.69227485E-04
 -2.00426291E-04 -1.34901643E-03  4.03904947E-04  5.69801986E-04 -1.31098948E-04
  4.26877531E-05  2.60780157E-06  4.09823242E-04 -6.84849378E-04  1.57337379E-04
 -3.32100760E-05  1.83599711E-05  3.10779361E-04 -3.59477084E-04  1.04655062E-04
 -4.97620943E-06  6.31706324E-05 -4.03988899E-04 -5.69747520E-04 -1.31129558E-04
 -4.26979123E-05  2.60405360E-06 -4.09884878E-04  6.84826846E-04  1.57316903E-04
  3.32055625E-05  1.83484719E-05 -3.10867473E-04  3.59546036E-04  1.04644320E-04
  4.98089380E-06  6.31715089E-05 -7.04161551E-01 -2.23174157E-02  1.42999129E-02
  1.11243540E-04  4.97980023E-04 -6.84180836E-05  2.53993481E-03  1.58633754E-03
  4.80294705E-06 -2.77604072E-04 -6.41735055E-05 -1.62768478E-05 -3.01469827E-04
  4.01055977E-04  1.34063161E-02  3.23208528E-04 -3.69442286E-03 -1.83980286E-04
 -1.19388798E-04  9.36493280E-05  1.61639721E-03  1.80779526E-03 -6.17702774E-04
 -5.16997775E-04  1.44298488E-05 -3.35071958E-05 -2.18445140E-04  6.30710718E-04
 -1.34242983E-02 -3.24476609E-04  3.69951102E-03 -1.83963736E-04  1.19981787E-04
  9.36930905E-05  1.61720207E-03 -1.80966512E-03 -6.17552401E-04  5.17485890E-04
 -1.43237365E-05 -3.39387478E-05  2.18920298E-04  6.31634676E-04  7.05353826E-01
  2.23537777E-02 -1.43198255E-02  1.11914313E-04 -4.98902737E-04 -6.85655477E-05
  2.54032595E-03 -1.58838745E-03  4.26429662E-06  2.77959035E-04  6.43060738E-05
 -1.65376502E-05  3.01850165E-04  4.01759591E-04  3.13939321E-04 -5.82303305E-04
 -6.31127615E-05  1.05015757E-04  5.87560920E-05  3.89882506E-04  1.45869874E-04
  2.03789579E-07 -5.29280671E-05 -1.09994983E-05 -3.90389501E-04 -1.45217498E-04
  2.87024857E-07  5.28584843E-05 -1.10821763E-05 -3.14410440E-04  5.82296164E-04
 -6.29542672E-05 -1.05099269E-04  5.87193086E-05 -1.12063660E-03  5.35750722E-04
  1.41592715E-03  2.24138835E-04  3.06878306E-04 -5.40376874E-04  1.59840744E-03
 -5.61295255E-04 -9.06837858E-04  8.09569871E-04 -6.81989705E-04  2.01758397E-03
 -3.98884366E-04 -3.45008318E-04 -1.26099341E-03  1.11902432E-03 -5.32782824E-04
  1.41365657E-03 -2.23787865E-04  3.06428299E-04  5.38577189E-04 -1.59600923E-03
 -5.60377283E-04  9.05268661E-04  8.08060306E-04  6.80324444E-04 -2.01556024E-03
 -3.98725784E-04  3.44362305E-04 -1.25873636E-03  7.05308811E-01  2.15111022E-02
 -1.17816401E-02 -3.96899567E-04 -5.45131129E-04  8.73816007E-05 -2.29717183E-04
 -1.21107186E-03  3.13927459E-04  2.08757785E-04  7.91569349E-05  1.53277901E-04
  2.23291058E-04 -4.13862780E-04 -1.06916834E-02 -7.51737992E-04  3.00834015E-03
 -8.18949320E-06  3.52785620E-04 -2.62353517E-05 -4.75862650E-04 -1.10549882E-03