Butano diedro spostato da usare per armonia - tors CH3                  
Freq      RB3LYP                                                      CC-pVDZ             
Number of atoms                            I               14
Charge                                     I                0
Multiplicity                               I                1
Number of electrons                        I               34
Number of alpha electrons                  I               17
Number of beta electrons                   I               17
Number of basis functions                  I              106
Number of independant functions            I              106
Number of point charges in /Mol/           I                0
Number of translation vectors              I                0
Number of symbols in /Mol/                 I                0
Info1-9                                    I   N=           9
          24          24        1001           0           0         100
           6          18        -501
Num ILSW                                   I              100
ILSW                                       I   N=         100
           0           0           0           0           2           0
           0           0           3           0         402      200000
           5           0           0           0           0           0
           0      800000           1           0           1           0
           1           0           0           0     1000000           0
           0           0           0           0          -1           0
           0           0           0           0           0           0
           0           0           0           1           0           0
           0           0           1      720000      810000           0
           0           0           0           0           0           0
           0           0           0           0           0           0
           0           0           0           0           0           0
           0           0           0           0           0           0
           0           0           0           0           0           0
           0           0           0           0           0           0
           0           0           0           0           0           0
           0           0           0           0
Number of contracted shells                I               54
Highest angular momentum                   I                2
Largest degree of contraction              I                7
Number of primitive shells                 I              130
Pure/Cartesian d shells                    I                0
Pure/Cartesian f shells                    I                0
Virial Ratio                               R      2.009395745547377E+00
SCF Energy                                 R     -1.584587705102811E+02
Total Energy                               R     -1.584587705102811E+02
RMS Force                                  R      7.611323771584507E-07
RMS Density                                R      3.877579764894734E-09
Atomic numbers                             I   N=          14
           6           6           6           6           1           1
           1           1           1           1           1           1
           1           1
Nuclear charges                            R   N=          14
  6.00000000E+00  6.00000000E+00  6.00000000E+00  6.00000000E+00  1.00000000E+00
  1.00000000E+00  1.00000000E+00  1.00000000E+00  1.00000000E+00  1.00000000E+00
  1.00000000E+00  1.00000000E+00  1.00000000E+00  1.00000000E+00
Current cartesian coordinates              R   N=          42
  1.32897572E+00  3.46667214E+00 -3.83575791E-08  1.32897572E+00  5.74967793E-01
 -3.83575774E-08 -1.32897572E+00 -5.74967793E-01 -3.83575774E-08 -1.32897572E+00
 -3.46667214E+00 -3.83575791E-08  2.37772795E+00 -1.24249842E-01 -1.66746427E+00
  2.37772753E+00 -1.24251083E-01  1.66746265E+00 -2.37772753E+00  1.24251083E-01
  1.66746265E+00 -2.37772795E+00  1.24249842E-01 -1.66746427E+00 -3.26517169E+00
 -4.23384158E+00 -3.83575801E-08 -3.51876957E-01 -4.22302987E+00 -1.68004024E+00
 -3.51878102E-01 -4.22302871E+00  1.68004236E+00  3.26517169E+00  4.23384158E+00
 -3.83575800E-08  3.51876957E-01  4.22302987E+00 -1.68004024E+00  3.51878102E-01
  4.22302871E+00  1.68004236E+00
Atom Types                                 C   N=          14
                                                            
                                                            
                                                
Int Atom Types                             I   N=          14
           0           0           0           0           0           0
           0           0           0           0           0           0
           0           0
Force Field                                I                0
MM charges                                 R   N=          14
  0.00000000E+00  0.00000000E+00  0.00000000E+00  0.00000000E+00  0.00000000E+00
  0.00000000E+00  0.00000000E+00  0.00000000E+00  0.00000000E+00  0.00000000E+00
  0.00000000E+00  0.00000000E+00  0.00000000E+00  0.00000000E+00
Integer atomic weights                     I   N=          14
          12          12          12          12           1           1
           1           1           1           1           1           1
           1           1
Real atomic weights                        R   N=          14
  1.20000000E+01  1.20000000E+01  1.20000000E+01  1.20000000E+01  1.00782504E+00
  1.00782504E+00  1.00782504E+00  1.00782504E+00  1.00782504E+00  1.00782504E+00
  1.00782504E+00  1.00782504E+00  1.00782504E+00  1.00782504E+00
Atom residue info                          I   N=          14
           0           0           0           0           0           0
           0           0           0           0           0           0
           0           0
Atom fragment info                         I   N=          14
           0           0           0           0           0           0
           0           0           0           0           0           0
           0           0
Atom residue num                           I   N=          14
           0           0           0           0           0           0
           0           0           0           0           0           0
           0           0
Nuclear spins                              I   N=          14
           0           0           0           0           1           1
           1           1           1           1           1           1
           1           1
Nuclear ZEff                               R   N=          14
 -3.60000000E+00 -3.60000000E+00 -3.60000000E+00 -3.60000000E+00 -1.00000000E+00
 -1.00000000E+00 -1.00000000E+00 -1.00000000E+00 -1.00000000E+00 -1.00000000E+00
 -1.00000000E+00 -1.00000000E+00 -1.00000000E+00 -1.00000000E+00
Nuclear QMom                               R   N=          14
  0.00000000E+00  0.00000000E+00  0.00000000E+00  0.00000000E+00  0.00000000E+00
  0.00000000E+00  0.00000000E+00  0.00000000E+00  0.00000000E+00  0.00000000E+00
  0.00000000E+00  0.00000000E+00  0.00000000E+00  0.00000000E+00
Nuclear GFac                               R   N=          14
  0.00000000E+00  0.00000000E+00  0.00000000E+00  0.00000000E+00  2.79284600E+00
  2.79284600E+00  2.79284600E+00  2.79284600E+00  2.79284600E+00  2.79284600E+00
  2.79284600E+00  2.79284600E+00  2.79284600E+00  2.79284600E+00
MicOpt                                     I   N=          14
          -1          -1          -1          -1          -1          -1
          -1          -1          -1          -1          -1          -1
          -1          -1
Constraint Structure                       R   N=          42
  1.32897572E+00  3.46667214E+00 -3.83575791E-08  1.32897572E+00  5.74967793E-01
 -3.83575774E-08 -1.32897572E+00 -5.74967793E-01 -3.83575774E-08 -1.32897572E+00
 -3.46667214E+00 -3.83575791E-08  2.37772795E+00 -1.24249842E-01 -1.66746427E+00
  2.37772753E+00 -1.24251083E-01  1.66746265E+00 -2.37772753E+00  1.24251083E-01
  1.66746265E+00 -2.37772795E+00  1.24249842E-01 -1.66746427E+00 -3.26517169E+00
 -4.23384158E+00 -3.83575801E-08 -3.51876957E-01 -4.22302987E+00 -1.68004024E+00
 -3.51878102E-01 -4.22302871E+00  1.68004236E+00  3.26517169E+00  4.23384158E+00
 -3.83575800E-08  3.51876957E-01  4.22302987E+00 -1.68004024E+00  3.51878102E-01
  4.22302871E+00  1.68004236E+00
ONIOM Charges                              I   N=          16
           0           0           0           0           0           0
           0           0           0           0           0           0
           0           0           0           0
ONIOM Multiplicities                       I   N=          16
           1           0           0           0           0           0
           0           0           0           0           0           0
           0           0           0           0
Atom Layers                                I   N=          14
           0           0           0           0           0           0
           0           0           0           0           0           0
           0           0
Atom Modifiers                             I   N=          14
           0           0           0           0           0           0
           0           0           0           0           0           0
           0           0
Atom Modified Types                        C   N=          14
                                                            
                                                            
                                                
Int Atom Modified Types                    I   N=          14
           0           0           0           0           0           0
           0           0           0           0           0           0
           0           0
Link Atoms                                 I   N=          14
           0           0           0           0           0           0
           0           0           0           0           0           0
           0           0
Atom Modified MM Charges                   R   N=          14
  0.00000000E+00  0.00000000E+00  0.00000000E+00  0.00000000E+00  0.00000000E+00
  0.00000000E+00  0.00000000E+00  0.00000000E+00  0.00000000E+00  0.00000000E+00
  0.00000000E+00  0.00000000E+00  0.00000000E+00  0.00000000E+00
Link Distances                             R   N=          56
  0.00000000E+00  0.00000000E+00  0.00000000E+00  0.00000000E+00  0.00000000E+00
  0.00000000E+00  0.00000000E+00  0.00000000E+00  0.00000000E+00  0.00000000E+00
  0.00000000E+00  0.00000000E+00  0.00000000E+00  0.00000000E+00  0.00000000E+00
  0.00000000E+00  0.00000000E+00  0.00000000E+00  0.00000000E+00  0.00000000E+00
  0.00000000E+00  0.00000000E+00  0.00000000E+00  0.00000000E+00  0.00000000E+00
  0.00000000E+00  0.00000000E+00  0.00000000E+00  0.00000000E+00  0.00000000E+00
  0.00000000E+00  0.00000000E+00  0.00000000E+00  0.00000000E+00  0.00000000E+00
  0.00000000E+00  0.00000000E+00  0.00000000E+00  0.00000000E+00  0.00000000E+00
  0.00000000E+00  0.00000000E+00  0.00000000E+00  0.00000000E+00  0.00000000E+00
  0.00000000E+00  0.00000000E+00  0.00000000E+00  0.00000000E+00  0.00000000E+00
  0.00000000E+00  0.00000000E+00  0.00000000E+00  0.00000000E+00  0.00000000E+00
  0.00000000E+00
MxBond                                     I                4
NBond                                      I   N=          14
           4           4           4           4           1           1
           1           1           1           1           1           1
           1           1
IBond                                      I   N=          56
           2          12          13          14           1           3
           5           6           2           4           7           8
           3           9          10          11           2           0
           0           0           2           0           0           0
           3           0           0           0           3           0
           0           0           4           0           0           0
           4           0           0           0           4           0
           0           0           1           0           0           0
           1           0           0           0           1           0
           0           0
RBond                                      R   N=          56
  1.00000000E+00  1.00000000E+00  1.00000000E+00  1.00000000E+00  1.00000000E+00
  1.00000000E+00  1.00000000E+00  1.00000000E+00  1.00000000E+00  1.00000000E+00
  1.00000000E+00  1.00000000E+00  1.00000000E+00  1.00000000E+00  1.00000000E+00
  1.00000000E+00  1.00000000E+00  0.00000000E+00  0.00000000E+00  0.00000000E+00
  1.00000000E+00  0.00000000E+00  0.00000000E+00  0.00000000E+00  1.00000000E+00
  0.00000000E+00  0.00000000E+00  0.00000000E+00  1.00000000E+00  0.00000000E+00
  0.00000000E+00  0.00000000E+00  1.00000000E+00  0.00000000E+00  0.00000000E+00
  0.00000000E+00  1.00000000E+00  0.00000000E+00  0.00000000E+00  0.00000000E+00
  1.00000000E+00  0.00000000E+00  0.00000000E+00  0.00000000E+00  1.00000000E+00
  0.00000000E+00  0.00000000E+00  0.00000000E+00  1.00000000E+00  0.00000000E+00
  0.00000000E+00  0.00000000E+00  1.00000000E+00  0.00000000E+00  0.00000000E+00
  0.00000000E+00
Shell types                                I   N=          54
           0           0           0           1           1          -2
           0           0           0           1           1          -2
           0           0           0           1           1          -2
           0           0           0           1           1          -2
           0           0           1           0           0           1
           0           0           1           0           0           1
           0           0           1           0           0           1
           0           0           1           0           0           1
           0           0           1           0           0           1
Number of primitives per shell             I   N=          54
           7           7           1           3           1           1
           7           7           1           3           1           1
           7           7           1           3           1           1
           7           7           1           3           1           1
           3           1           1           3           1           1
           3           1           1           3           1           1
           3           1           1           3           1           1
           3           1           1           3           1           1
           3           1           1           3           1           1
Shell to atom map                          I   N=          54
           1           1           1           1           1           1
           2           2           2           2           2           2
           3           3           3           3           3           3
           4           4           4           4           4           4
           5           5           5           6           6           6
           7           7           7           8           8           8
           9           9           9          10          10          10
          11          11          11          12          12          12
          13          13          13          14          14          14
Primitive exponents                        R   N=         130
  6.66500000E+03  1.00000000E+03  2.28000000E+02  6.47100000E+01  2.10600000E+01
  7.49500000E+00  2.79700000E+00  6.66500000E+03  1.00000000E+03  6.47100000E+01
  2.10600000E+01  7.49500000E+00  2.79700000E+00  5.21500000E-01  1.59600000E-01
  9.43900000E+00  2.00200000E+00  5.45600000E-01  1.51700000E-01  5.50000000E-01
  6.66500000E+03  1.00000000E+03  2.28000000E+02  6.47100000E+01  2.10600000E+01
  7.49500000E+00  2.79700000E+00  6.66500000E+03  1.00000000E+03  6.47100000E+01
  2.10600000E+01  7.49500000E+00  2.79700000E+00  5.21500000E-01  1.59600000E-01
  9.43900000E+00  2.00200000E+00  5.45600000E-01  1.51700000E-01  5.50000000E-01
  6.66500000E+03  1.00000000E+03  2.28000000E+02  6.47100000E+01  2.10600000E+01
  7.49500000E+00  2.79700000E+00  6.66500000E+03  1.00000000E+03  6.47100000E+01
  2.10600000E+01  7.49500000E+00  2.79700000E+00  5.21500000E-01  1.59600000E-01
  9.43900000E+00  2.00200000E+00  5.45600000E-01  1.51700000E-01  5.50000000E-01
  6.66500000E+03  1.00000000E+03  2.28000000E+02  6.47100000E+01  2.10600000E+01
  7.49500000E+00  2.79700000E+00  6.66500000E+03  1.00000000E+03  6.47100000E+01
  2.10600000E+01  7.49500000E+00  2.79700000E+00  5.21500000E-01  1.59600000E-01
  9.43900000E+00  2.00200000E+00  5.45600000E-01  1.51700000E-01  5.50000000E-01
  1.30100000E+01  1.96200000E+00  4.44600000E-01  1.22000000E-01  7.27000000E-01
  1.30100000E+01  1.96200000E+00  4.44600000E-01  1.22000000E-01  7.27000000E-01
  1.30100000E+01  1.96200000E+00  4.44600000E-01  1.22000000E-01  7.27000000E-01
  1.30100000E+01  1.96200000E+00  4.44600000E-01  1.22000000E-01  7.27000000E-01
  1.30100000E+01  1.96200000E+00  4.44600000E-01  1.22000000E-01  7.27000000E-01
  1.30100000E+01  1.96200000E+00  4.44600000E-01  1.22000000E-01  7.27000000E-01
  1.30100000E+01  1.96200000E+00  4.44600000E-01  1.22000000E-01  7.27000000E-01
  1.30100000E+01  1.96200000E+00  4.44600000E-01  1.22000000E-01  7.27000000E-01
  1.30100000E+01  1.96200000E+00  4.44600000E-01  1.22000000E-01  7.27000000E-01
  1.30100000E+01  1.96200000E+00  4.44600000E-01  1.22000000E-01  7.27000000E-01
Contraction coefficients                   R   N=         130
  6.93516317E-04  5.34150243E-03  2.71366714E-02  1.01992385E-01  2.75508636E-01
  4.51086433E-01  2.87565745E-01  6.28313219E-07 -5.48480000E-05 -3.63137064E-03
 -1.17983699E-02 -1.10909885E-01 -1.34742247E-01  1.10175849E+00  1.00000000E+00
  5.69792516E-02  3.13207212E-01  7.60376742E-01  1.00000000E+00  1.00000000E+00
  6.93516317E-04  5.34150243E-03  2.71366714E-02  1.01992385E-01  2.75508636E-01
  4.51086433E-01  2.87565745E-01  6.28313219E-07 -5.48480000E-05 -3.63137064E-03
 -1.17983699E-02 -1.10909885E-01 -1.34742247E-01  1.10175849E+00  1.00000000E+00
  5.69792516E-02  3.13207212E-01  7.60376742E-01  1.00000000E+00  1.00000000E+00
  6.93516317E-04  5.34150243E-03  2.71366714E-02  1.01992385E-01  2.75508636E-01
  4.51086433E-01  2.87565745E-01  6.28313219E-07 -5.48480000E-05 -3.63137064E-03
 -1.17983699E-02 -1.10909885E-01 -1.34742247E-01  1.10175849E+00  1.00000000E+00
  5.69792516E-02  3.13207212E-01  7.60376742E-01  1.00000000E+00  1.00000000E+00
  6.93516317E-04  5.34150243E-03  2.71366714E-02  1.01992385E-01  2.75508636E-01
  4.51086433E-01  2.87565745E-01  6.28313219E-07 -5.48480000E-05 -3.63137064E-03
 -1.17983699E-02 -1.10909885E-01 -1.34742247E-01  1.10175849E+00  1.00000000E+00
  5.69792516E-02  3.13207212E-01  7.60376742E-01  1.00000000E+00  1.00000000E+00
  3.34987264E-02  2.34800801E-01  8.13682958E-01  1.00000000E+00  1.00000000E+00
  3.34987264E-02  2.34800801E-01  8.13682958E-01  1.00000000E+00  1.00000000E+00
  3.34987264E-02  2.34800801E-01  8.13682958E-01  1.00000000E+00  1.00000000E+00
  3.34987264E-02  2.34800801E-01  8.13682958E-01  1.00000000E+00  1.00000000E+00
  3.34987264E-02  2.34800801E-01  8.13682958E-01  1.00000000E+00  1.00000000E+00
  3.34987264E-02  2.34800801E-01  8.13682958E-01  1.00000000E+00  1.00000000E+00
  3.34987264E-02  2.34800801E-01  8.13682958E-01  1.00000000E+00  1.00000000E+00
  3.34987264E-02  2.34800801E-01  8.13682958E-01  1.00000000E+00  1.00000000E+00
  3.34987264E-02  2.34800801E-01  8.13682958E-01  1.00000000E+00  1.00000000E+00
  3.34987264E-02  2.34800801E-01  8.13682958E-01  1.00000000E+00  1.00000000E+00
Coordinates of each shell                  R   N=         162
  1.32897572E+00  3.46667214E+00 -3.83575791E-08  1.32897572E+00  3.46667214E+00
 -3.83575791E-08  1.32897572E+00  3.46667214E+00 -3.83575791E-08  1.32897572E+00
  3.46667214E+00 -3.83575791E-08  1.32897572E+00  3.46667214E+00 -3.83575791E-08
  1.32897572E+00  3.46667214E+00 -3.83575791E-08  1.32897572E+00  5.74967793E-01
 -3.83575774E-08  1.32897572E+00  5.74967793E-01 -3.83575774E-08  1.32897572E+00
  5.74967793E-01 -3.83575774E-08  1.32897572E+00  5.74967793E-01 -3.83575774E-08
  1.32897572E+00  5.74967793E-01 -3.83575774E-08  1.32897572E+00  5.74967793E-01
 -3.83575774E-08 -1.32897572E+00 -5.74967793E-01 -3.83575774E-08 -1.32897572E+00
 -5.74967793E-01 -3.83575774E-08 -1.32897572E+00 -5.74967793E-01 -3.83575774E-08
 -1.32897572E+00 -5.74967793E-01 -3.83575774E-08 -1.32897572E+00 -5.74967793E-01
 -3.83575774E-08 -1.32897572E+00 -5.74967793E-01 -3.83575774E-08 -1.32897572E+00
 -3.46667214E+00 -3.83575791E-08 -1.32897572E+00 -3.46667214E+00 -3.83575791E-08
 -1.32897572E+00 -3.46667214E+00 -3.83575791E-08 -1.32897572E+00 -3.46667214E+00
 -3.83575791E-08 -1.32897572E+00 -3.46667214E+00 -3.83575791E-08 -1.32897572E+00
 -3.46667214E+00 -3.83575791E-08  2.37772795E+00 -1.24249842E-01 -1.66746427E+00
  2.37772795E+00 -1.24249842E-01 -1.66746427E+00  2.37772795E+00 -1.24249842E-01
 -1.66746427E+00  2.37772753E+00 -1.24251083E-01  1.66746265E+00  2.37772753E+00
 -1.24251083E-01  1.66746265E+00  2.37772753E+00 -1.24251083E-01  1.66746265E+00
 -2.37772753E+00  1.24251083E-01  1.66746265E+00 -2.37772753E+00  1.24251083E-01
  1.66746265E+00 -2.37772753E+00  1.24251083E-01  1.66746265E+00 -2.37772795E+00
  1.24249842E-01 -1.66746427E+00 -2.37772795E+00  1.24249842E-01 -1.66746427E+00
 -2.37772795E+00  1.24249842E-01 -1.66746427E+00 -3.26517169E+00 -4.23384158E+00
 -3.83575801E-08 -3.26517169E+00 -4.23384158E+00 -3.83575801E-08 -3.26517169E+00
 -4.23384158E+00 -3.83575801E-08 -3.51876957E-01 -4.22302987E+00 -1.68004024E+00
 -3.51876957E-01 -4.22302987E+00 -1.68004024E+00 -3.51876957E-01 -4.22302987E+00
 -1.68004024E+00 -3.51878102E-01 -4.22302871E+00  1.68004236E+00 -3.51878102E-01
 -4.22302871E+00  1.68004236E+00 -3.51878102E-01 -4.22302871E+00  1.68004236E+00
  3.26517169E+00  4.23384158E+00 -3.83575800E-08  3.26517169E+00  4.23384158E+00
 -3.83575800E-08  3.26517169E+00  4.23384158E+00 -3.83575800E-08  3.51876957E-01
  4.22302987E+00 -1.68004024E+00  3.51876957E-01  4.22302987E+00 -1.68004024E+00
  3.51876957E-01  4.22302987E+00 -1.68004024E+00  3.51878102E-01  4.22302871E+00
  1.68004236E+00  3.51878102E-01  4.22302871E+00  1.68004236E+00  3.51878102E-01
  4.22302871E+00  1.68004236E+00
Alpha Orbital Energies                     R   N=         106
 -1.01803091E+01 -1.01801408E+01 -1.01759349E+01 -1.01759273E+01 -7.90751045E-01
 -7.20674861E-01 -6.27105171E-01 -5.71999938E-01 -4.63524066E-01 -4.22557018E-01
 -4.16283281E-01 -4.06400072E-01 -3.65597314E-01 -3.46662599E-01 -3.32595904E-01
 -3.20700798E-01 -3.19387788E-01  6.10829313E-02  8.04422217E-02  9.54735566E-02
  1.00947024E-01  1.37586858E-01  1.40433926E-01  1.51212928E-01  1.53321710E-01
  1.60792796E-01  1.70175763E-01  2.26454978E-01  2.32803195E-01  2.49802534E-01
  4.02089143E-01  4.06156806E-01  4.09100977E-01  4.18317950E-01  4.50406684E-01
  5.07558735E-01  5.10053882E-01  5.83224564E-01  6.12180376E-01  6.34723180E-01
  6.43168826E-01  6.48234695E-01  6.52980557E-01  6.64196950E-01  6.69613395E-01
  6.69742858E-01  6.79563363E-01  6.99504061E-01  7.04501169E-01  7.24361950E-01
  7.40510895E-01  7.41986245E-01  8.97597690E-01  9.00331383E-01  9.60721362E-01
  1.07342656E+00  1.20365104E+00  1.22228306E+00  1.22382011E+00  1.22589393E+00
  1.28660565E+00  1.32684528E+00  1.42599522E+00  1.42632101E+00  1.43641323E+00
  1.49163039E+00  1.57388592E+00  1.60473550E+00  1.60818154E+00  1.62275250E+00
  1.62376376E+00  1.62473251E+00  1.64665702E+00  1.65804152E+00  1.69355676E+00
  1.70217614E+00  1.71064456E+00  1.71189949E+00  1.71261318E+00  1.74436491E+00
  1.74624374E+00  1.78155804E+00  1.87103313E+00  1.91637560E+00  1.91782862E+00
  1.95990386E+00  1.99348147E+00  2.09317097E+00  2.11716430E+00  2.13391941E+00
  2.18728229E+00  2.21648154E+00  2.21697022E+00  2.27215437E+00  2.28655557E+00
  2.31346797E+00  2.40431055E+00  2.41251717E+00  2.41727694E+00  2.46057462E+00
  2.48687599E+00  2.50740437E+00  2.58456516E+00  2.63378018E+00  2.70319150E+00
  2.71316922E+00
Alpha MO coefficients                      R   N=       11236
  1.27252379E-02 -2.21771608E-04  4.49001116E-03  9.71667024E-05  4.20906052E-04
 -9.86925014E-12 -2.18244461E-04 -1.76428051E-03  5.44053434E-10  2.48017490E-04
  1.96764204E-10 -1.81274781E-10  8.46815204E-04  1.44346082E-05  7.04792902E-01
  2.17335498E-02 -1.22011416E-02  7.72153482E-04 -2.99978909E-04  1.65705812E-09
  2.93311706E-04 -2.15232878E-03  3.25571037E-12  9.91147638E-04  1.01621947E-09
 -1.57814926E-09 -2.37569061E-04 -8.65937731E-04  7.04792902E-01  2.17335498E-02
 -1.22011416E-02 -7.72153482E-04  2.99978909E-04  1.65705812E-09 -2.93311706E-04
  2.15232878E-03  3.25571037E-12  9.91147638E-04 -1.01621947E-09  1.57814926E-09
 -2.37569061E-04 -8.65937731E-04  1.27252379E-02 -2.21771608E-04  4.49001116E-03
 -9.71667024E-05 -4.20906052E-04 -9.86925014E-12  2.18244461E-04  1.76428051E-03
  5.44053434E-10  2.48017490E-04 -1.96764204E-10  1.81274781E-10  8.46815204E-04
  1.44346082E-05 -1.13950610E-03  1.76279971E-03  5.34312909E-04 -4.55197898E-04
 -1.21430519E-03 -1.13951058E-03  1.76280158E-03  5.34313698E-04 -4.55199400E-04
  1.21430618E-03 -1.13951058E-03  1.76280158E-03 -5.34313698E-04  4.55199400E-04
  1.21430618E-03 -1.13950610E-03  1.76279971E-03 -5.34312909E-04  4.55197898E-04
 -1.21430519E-03 -5.16357127E-04  1.13973978E-04 -1.29067530E-04 -1.30455353E-04
 -1.02746476E-10 -3.90891701E-04 -3.73351711E-05 -4.02958721E-05 -1.64957575E-05
 -7.44160222E-05 -3.90891473E-04 -3.73357542E-05 -4.02956383E-05 -1.64951397E-05
  7.44161049E-05 -5.16357127E-04  1.13973978E-04  1.29067530E-04  1.30455353E-04
 -1.02746476E-10 -3.90891701E-04 -3.73351711E-05  4.02958721E-05  1.64957575E-05
 -7.44160222E-05 -3.90891473E-04 -3.73357542E-05  4.02956383E-05  1.64951397E-05
  7.44161049E-05  1.60824345E-02  4.14426643E-04  4.24674499E-03 -9.56538028E-05
  7.15667051E-05  7.45739305E-11  1.84651386E-04 -1.90481888E-03 -1.25615560E-09
  4.41057887E-04  2.01540093E-10  4.39454207E-11  5.28648494E-04  7.12739810E-05
  7.04762018E-01  2.26411765E-02 -2.16797686E-02  3.11567721E-04 -3.17033080E-04
  1.57538884E-09  4.26171372E-03 -3.44631596E-04  2.53428679E-09  3.21325479E-04
  6.56115300E-10 -1.38366027E-09  5.88538481E-04 -5.56342479E-05 -7.04762018E-01
 -2.26411765E-02  2.16797686E-02  3.11567721E-04 -3.17033080E-04 -1.57538884E-09
  4.26171372E-03 -3.44631596E-04 -2.53428679E-09 -3.21325479E-04  6.56115300E-10
 -1.38366027E-09 -5.88538481E-04  5.56342479E-05 -1.60824345E-02 -4.14426643E-04
 -4.24674499E-03 -9.56538028E-05  7.15667051E-05 -7.45739305E-11  1.84651386E-04
 -1.90481888E-03  1.25615560E-09 -4.41057887E-04  2.01540093E-10  4.39454207E-11
 -5.28648494E-04 -7.12739810E-05 -4.68448384E-04  1.24902326E-03  6.61543552E-04
 -3.64774946E-04 -1.16415158E-03 -4.68453495E-04  1.24902380E-03  6.61545175E-04
 -3.64776369E-04  1.16415243E-03  4.68453495E-04 -1.24902380E-03  6.61545175E-04
 -3.64776369E-04 -1.16415243E-03  4.68448384E-04 -1.24902326E-03  6.61543552E-04
 -3.64774946E-04  1.16415158E-03  4.16978687E-04  4.87606928E-04  1.02070053E-04
  1.45815178E-04 -1.99765893E-11  3.39082378E-04 -4.82743609E-04 -9.59950456E-05
 -9.11770200E-05  3.35895187E-05  3.39082118E-04 -4.82745198E-04 -9.59951581E-05
 -9.11778680E-05 -3.35898150E-05 -4.16978687E-04 -4.87606928E-04  1.02070053E-04
  1.45815178E-04  1.99765893E-11 -3.39082378E-04  4.82743609E-04 -9.59950456E-05
 -9.11770200E-05 -3.35895187E-05 -3.39082118E-04  4.82745198E-04 -9.59951581E-05
 -9.11778680E-05  3.35898150E-05  7.04701422E-01  2.22202468E-02 -1.50395373E-02
 -6.06631071E-05  5.95854885E-04 -8.01238242E-10  7.52150567E-04  2.94437258E-03
 -1.75115284E-09  2.84844144E-04  1.27426235E-09 -1.04357108E-09  5.45150363E-04
  4.24834832E-05 -1.60108691E-02 -3.21058251E-04  2.95184878E-03  4.56287288E-06
 -4.44177962E-04 -9.06146705E-11  8.82779689E-04  3.77562818E-03  5.12799876E-10
  5.49026671E-04 -1.39191568E-10  1.06812214E-10  5.20145249E-04 -4.78010695E-06
  1.60108691E-02  3.21058251E-04 -2.95184878E-03  4.56287288E-06 -4.44177962E-04
  9.06146705E-11  8.82779689E-04  3.77562818E-03 -5.12799876E-10 -5.49026671E-04
 -1.39191568E-10  1.06812214E-10 -5.20145249E-04  4.78010695E-06 -7.04701422E-01
 -2.22202468E-02  1.50395373E-02 -6.06631071E-05  5.95854885E-04  8.01238242E-10
  7.52150567E-04  2.94437258E-03  1.75115284E-09 -2.84844144E-04  1.27426235E-09
 -1.04357108E-09 -5.45150363E-04 -4.24834832E-05 -1.27390245E-04  3.94989385E-04
 -3.73830441E-05 -1.38352600E-04  3.08230233E-05 -1.27389785E-04  3.94988807E-04
 -3.73830820E-05 -1.38353115E-04 -3.08234587E-05  1.27389785E-04 -3.94988807E-04
 -3.73830820E-05 -1.38353115E-04  3.08234587E-05  1.27390245E-04 -3.94989385E-04
 -3.73830441E-05 -1.38352600E-04 -3.08230233E-05  9.64021779E-04 -8.73392596E-04
  1.37110099E-03  4.43206479E-04 -2.32504434E-11  6.94768679E-04 -1.60235444E-03
 -7.06349957E-04  3.51675190E-04  1.10206027E-03  6.94764622E-04 -1.60235460E-03
 -7.06348146E-04  3.51673739E-04 -1.10205993E-03 -9.64021779E-04  8.73392596E-04
  1.37110099E-03  4.43206479E-04  2.32504434E-11 -6.94768679E-04  1.60235444E-03
 -7.06349957E-04  3.51675190E-04 -1.10206027E-03 -6.94764622E-04  1.60235460E-03
 -7.06348146E-04  3.51673739E-04  1.10205993E-03  7.04689806E-01  2.16459104E-02
 -1.11380398E-02 -4.53342621E-05  5.81029384E-04 -8.76922658E-10  5.01432484E-04
  8.93880683E-04 -1.12710973E-09  2.45918262E-04  1.34076601E-09 -1.12147480E-09
  4.53381793E-04 -2.00738091E-05 -1.27552528E-02 -8.50693766E-04  2.84815452E-03
  1.29722577E-04 -9.29149061E-05 -8.22099174E-11  1.42911772E-04 -3.68755279E-04