Butano diedro spostato da usare per armonia                             
Freq      RB3LYP                                                      CC-pVDZ             
Number of atoms                            I               14
Charge                                     I                0
Multiplicity                               I                1
Number of electrons                        I               34
Number of alpha electrons                  I               17
Number of beta electrons                   I               17
Number of basis functions                  I              106
Number of independant functions            I              106
Number of point charges in /Mol/           I                0
Number of translation vectors              I                0
Number of symbols in /Mol/                 I                0
Info1-9                                    I   N=           9
          27          25        1001           0           0         100
           6          18        -501
Num ILSW                                   I              100
ILSW                                       I   N=         100
           0           0           0           0           2           0
           0           0           3           0         402      200000
           5           0           0           0           0           0
           0      800000           1           0           1           0
           1           0           0           0     1000000           0
           0           0           0           0          -1           0
           0           0           0           0           0           0
           0           0           0           1           0           0
           0           0           1      720000      810000           0
           0           0           0           0           0           0
           0           0           0           0           0           0
           0           0           0           0           0           0
           0           0           0           0           0           0
           0           0           0           0           0           0
           0           0           0           0           0           0
           0           0           0           0           0           0
           0           0           0           0
Number of contracted shells                I               54
Highest angular momentum                   I                2
Largest degree of contraction              I                7
Number of primitive shells                 I              130
Pure/Cartesian d shells                    I                0
Pure/Cartesian f shells                    I                0
Virial Ratio                               R      2.009401452799844E+00
SCF Energy                                 R     -1.584561512031163E+02
Total Energy                               R     -1.584561512031163E+02
RMS Force                                  R      9.854780527540550E-04
RMS Density                                R      3.364532898745394E-09
Atomic numbers                             I   N=          14
           6           6           6           6           1           1
           1           1           1           1           1           1
           1           1
Nuclear charges                            R   N=          14
  6.00000000E+00  6.00000000E+00  6.00000000E+00  6.00000000E+00  1.00000000E+00
  1.00000000E+00  1.00000000E+00  1.00000000E+00  1.00000000E+00  1.00000000E+00
  1.00000000E+00  1.00000000E+00  1.00000000E+00  1.00000000E+00
Current cartesian coordinates              R   N=          42
 -3.65123547E+00  2.36907372E-01  3.18216638E-01 -1.10338354E+00 -9.49030994E-01
 -3.67878573E-01  1.10338366E+00  9.49033602E-01 -3.67876722E-01  3.65123542E+00
 -2.36909409E-01  3.18216787E-01 -6.88489613E-01 -2.46034739E+00  1.01543625E+00
 -1.22528515E+00 -1.90077283E+00 -2.22191687E+00  1.22528788E+00  1.90078010E+00
 -2.22191283E+00  6.88492490E-01  2.46034711E+00  1.01544145E+00  5.18960088E+00
  1.16676720E+00  2.67995786E-01  3.60032698E+00 -1.05428257E+00  2.23551441E+00
  4.16104712E+00 -1.77240558E+00 -9.99070940E-01 -5.18959853E+00 -1.16677273E+00
  2.68001216E-01 -3.60032823E+00  1.05428225E+00  2.23551368E+00 -4.16105430E+00
  1.77240102E+00 -9.99070932E-01
Atom Types                                 C   N=          14
                                                            
                                                            
                                                
Int Atom Types                             I   N=          14
           0           0           0           0           0           0
           0           0           0           0           0           0
           0           0
Force Field                                I                0
MM charges                                 R   N=          14
  0.00000000E+00  0.00000000E+00  0.00000000E+00  0.00000000E+00  0.00000000E+00
  0.00000000E+00  0.00000000E+00  0.00000000E+00  0.00000000E+00  0.00000000E+00
  0.00000000E+00  0.00000000E+00  0.00000000E+00  0.00000000E+00
Integer atomic weights                     I   N=          14
          12          12          12          12           1           1
           1           1           1           1           1           1
           1           1
Real atomic weights                        R   N=          14
  1.20000000E+01  1.20000000E+01  1.20000000E+01  1.20000000E+01  1.00782504E+00
  1.00782504E+00  1.00782504E+00  1.00782504E+00  1.00782504E+00  1.00782504E+00
  1.00782504E+00  1.00782504E+00  1.00782504E+00  1.00782504E+00
Atom residue info                          I   N=          14
           0           0           0           0           0           0
           0           0           0           0           0           0
           0           0
Atom fragment info                         I   N=          14
           0           0           0           0           0           0
           0           0           0           0           0           0
           0           0
Atom residue num                           I   N=          14
           0           0           0           0           0           0
           0           0           0           0           0           0
           0           0
Nuclear spins                              I   N=          14
           0           0           0           0           1           1
           1           1           1           1           1           1
           1           1
Nuclear ZEff                               R   N=          14
 -3.60000000E+00 -3.60000000E+00 -3.60000000E+00 -3.60000000E+00 -1.00000000E+00
 -1.00000000E+00 -1.00000000E+00 -1.00000000E+00 -1.00000000E+00 -1.00000000E+00
 -1.00000000E+00 -1.00000000E+00 -1.00000000E+00 -1.00000000E+00
Nuclear QMom                               R   N=          14
  0.00000000E+00  0.00000000E+00  0.00000000E+00  0.00000000E+00  0.00000000E+00
  0.00000000E+00  0.00000000E+00  0.00000000E+00  0.00000000E+00  0.00000000E+00
  0.00000000E+00  0.00000000E+00  0.00000000E+00  0.00000000E+00
Nuclear GFac                               R   N=          14
  0.00000000E+00  0.00000000E+00  0.00000000E+00  0.00000000E+00  2.79284600E+00
  2.79284600E+00  2.79284600E+00  2.79284600E+00  2.79284600E+00  2.79284600E+00
  2.79284600E+00  2.79284600E+00  2.79284600E+00  2.79284600E+00
MicOpt                                     I   N=          14
          -1          -1          -1          -1          -1          -1
          -1          -1          -1          -1          -1          -1
          -1          -1
Constraint Structure                       R   N=          42
 -3.65123547E+00  2.36907372E-01  3.18216638E-01 -1.10338354E+00 -9.49030994E-01
 -3.67878573E-01  1.10338366E+00  9.49033602E-01 -3.67876722E-01  3.65123542E+00
 -2.36909409E-01  3.18216787E-01 -6.88489613E-01 -2.46034739E+00  1.01543625E+00
 -1.22528515E+00 -1.90077283E+00 -2.22191687E+00  1.22528788E+00  1.90078010E+00
 -2.22191283E+00  6.88492490E-01  2.46034711E+00  1.01544145E+00  5.18960088E+00
  1.16676720E+00  2.67995786E-01  3.60032698E+00 -1.05428257E+00  2.23551441E+00
  4.16104712E+00 -1.77240558E+00 -9.99070940E-01 -5.18959853E+00 -1.16677273E+00
  2.68001216E-01 -3.60032823E+00  1.05428225E+00  2.23551368E+00 -4.16105430E+00
  1.77240102E+00 -9.99070932E-01
ONIOM Charges                              I   N=          16
           0           0           0           0           0           0
           0           0           0           0           0           0
           0           0           0           0
ONIOM Multiplicities                       I   N=          16
           1           0           0           0           0           0
           0           0           0           0           0           0
           0           0           0           0
Atom Layers                                I   N=          14
           0           0           0           0           0           0
           0           0           0           0           0           0
           0           0
Atom Modifiers                             I   N=          14
           0           0           0           0           0           0
           0           0           0           0           0           0
           0           0
Atom Modified Types                        C   N=          14
                                                            
                                                            
                                                
Int Atom Modified Types                    I   N=          14
           0           0           0           0           0           0
           0           0           0           0           0           0
           0           0
Link Atoms                                 I   N=          14
           0           0           0           0           0           0
           0           0           0           0           0           0
           0           0
Atom Modified MM Charges                   R   N=          14
  0.00000000E+00  0.00000000E+00  0.00000000E+00  0.00000000E+00  0.00000000E+00
  0.00000000E+00  0.00000000E+00  0.00000000E+00  0.00000000E+00  0.00000000E+00
  0.00000000E+00  0.00000000E+00  0.00000000E+00  0.00000000E+00
Link Distances                             R   N=          56
  0.00000000E+00  0.00000000E+00  0.00000000E+00  0.00000000E+00  0.00000000E+00
  0.00000000E+00  0.00000000E+00  0.00000000E+00  0.00000000E+00  0.00000000E+00
  0.00000000E+00  0.00000000E+00  0.00000000E+00  0.00000000E+00  0.00000000E+00
  0.00000000E+00  0.00000000E+00  0.00000000E+00  0.00000000E+00  0.00000000E+00
  0.00000000E+00  0.00000000E+00  0.00000000E+00  0.00000000E+00  0.00000000E+00
  0.00000000E+00  0.00000000E+00  0.00000000E+00  0.00000000E+00  0.00000000E+00
  0.00000000E+00  0.00000000E+00  0.00000000E+00  0.00000000E+00  0.00000000E+00
  0.00000000E+00  0.00000000E+00  0.00000000E+00  0.00000000E+00  0.00000000E+00
  0.00000000E+00  0.00000000E+00  0.00000000E+00  0.00000000E+00  0.00000000E+00
  0.00000000E+00  0.00000000E+00  0.00000000E+00  0.00000000E+00  0.00000000E+00
  0.00000000E+00  0.00000000E+00  0.00000000E+00  0.00000000E+00  0.00000000E+00
  0.00000000E+00
MxBond                                     I                4
NBond                                      I   N=          14
           4           4           4           4           1           1
           1           1           1           1           1           1
           1           1
IBond                                      I   N=          56
           2          12          13          14           1           3
           5           6           2           4           7           8
           3           9          10          11           2           0
           0           0           2           0           0           0
           3           0           0           0           3           0
           0           0           4           0           0           0
           4           0           0           0           4           0
           0           0           1           0           0           0
           1           0           0           0           1           0
           0           0
RBond                                      R   N=          56
  1.00000000E+00  1.00000000E+00  1.00000000E+00  1.00000000E+00  1.00000000E+00
  1.00000000E+00  1.00000000E+00  1.00000000E+00  1.00000000E+00  1.00000000E+00
  1.00000000E+00  1.00000000E+00  1.00000000E+00  1.00000000E+00  1.00000000E+00
  1.00000000E+00  1.00000000E+00  0.00000000E+00  0.00000000E+00  0.00000000E+00
  1.00000000E+00  0.00000000E+00  0.00000000E+00  0.00000000E+00  1.00000000E+00
  0.00000000E+00  0.00000000E+00  0.00000000E+00  1.00000000E+00  0.00000000E+00
  0.00000000E+00  0.00000000E+00  1.00000000E+00  0.00000000E+00  0.00000000E+00
  0.00000000E+00  1.00000000E+00  0.00000000E+00  0.00000000E+00  0.00000000E+00
  1.00000000E+00  0.00000000E+00  0.00000000E+00  0.00000000E+00  1.00000000E+00
  0.00000000E+00  0.00000000E+00  0.00000000E+00  1.00000000E+00  0.00000000E+00
  0.00000000E+00  0.00000000E+00  1.00000000E+00  0.00000000E+00  0.00000000E+00
  0.00000000E+00
Shell types                                I   N=          54
           0           0           0           1           1          -2
           0           0           0           1           1          -2
           0           0           0           1           1          -2
           0           0           0           1           1          -2
           0           0           1           0           0           1
           0           0           1           0           0           1
           0           0           1           0           0           1
           0           0           1           0           0           1
           0           0           1           0           0           1
Number of primitives per shell             I   N=          54
           7           7           1           3           1           1
           7           7           1           3           1           1
           7           7           1           3           1           1
           7           7           1           3           1           1
           3           1           1           3           1           1
           3           1           1           3           1           1
           3           1           1           3           1           1
           3           1           1           3           1           1
           3           1           1           3           1           1
Shell to atom map                          I   N=          54
           1           1           1           1           1           1
           2           2           2           2           2           2
           3           3           3           3           3           3
           4           4           4           4           4           4
           5           5           5           6           6           6
           7           7           7           8           8           8
           9           9           9          10          10          10
          11          11          11          12          12          12
          13          13          13          14          14          14
Primitive exponents                        R   N=         130
  6.66500000E+03  1.00000000E+03  2.28000000E+02  6.47100000E+01  2.10600000E+01
  7.49500000E+00  2.79700000E+00  6.66500000E+03  1.00000000E+03  6.47100000E+01
  2.10600000E+01  7.49500000E+00  2.79700000E+00  5.21500000E-01  1.59600000E-01
  9.43900000E+00  2.00200000E+00  5.45600000E-01  1.51700000E-01  5.50000000E-01
  6.66500000E+03  1.00000000E+03  2.28000000E+02  6.47100000E+01  2.10600000E+01
  7.49500000E+00  2.79700000E+00  6.66500000E+03  1.00000000E+03  6.47100000E+01
  2.10600000E+01  7.49500000E+00  2.79700000E+00  5.21500000E-01  1.59600000E-01
  9.43900000E+00  2.00200000E+00  5.45600000E-01  1.51700000E-01  5.50000000E-01
  6.66500000E+03  1.00000000E+03  2.28000000E+02  6.47100000E+01  2.10600000E+01
  7.49500000E+00  2.79700000E+00  6.66500000E+03  1.00000000E+03  6.47100000E+01
  2.10600000E+01  7.49500000E+00  2.79700000E+00  5.21500000E-01  1.59600000E-01
  9.43900000E+00  2.00200000E+00  5.45600000E-01  1.51700000E-01  5.50000000E-01
  6.66500000E+03  1.00000000E+03  2.28000000E+02  6.47100000E+01  2.10600000E+01
  7.49500000E+00  2.79700000E+00  6.66500000E+03  1.00000000E+03  6.47100000E+01
  2.10600000E+01  7.49500000E+00  2.79700000E+00  5.21500000E-01  1.59600000E-01
  9.43900000E+00  2.00200000E+00  5.45600000E-01  1.51700000E-01  5.50000000E-01
  1.30100000E+01  1.96200000E+00  4.44600000E-01  1.22000000E-01  7.27000000E-01
  1.30100000E+01  1.96200000E+00  4.44600000E-01  1.22000000E-01  7.27000000E-01
  1.30100000E+01  1.96200000E+00  4.44600000E-01  1.22000000E-01  7.27000000E-01
  1.30100000E+01  1.96200000E+00  4.44600000E-01  1.22000000E-01  7.27000000E-01
  1.30100000E+01  1.96200000E+00  4.44600000E-01  1.22000000E-01  7.27000000E-01
  1.30100000E+01  1.96200000E+00  4.44600000E-01  1.22000000E-01  7.27000000E-01
  1.30100000E+01  1.96200000E+00  4.44600000E-01  1.22000000E-01  7.27000000E-01
  1.30100000E+01  1.96200000E+00  4.44600000E-01  1.22000000E-01  7.27000000E-01
  1.30100000E+01  1.96200000E+00  4.44600000E-01  1.22000000E-01  7.27000000E-01
  1.30100000E+01  1.96200000E+00  4.44600000E-01  1.22000000E-01  7.27000000E-01
Contraction coefficients                   R   N=         130
  6.93516317E-04  5.34150243E-03  2.71366714E-02  1.01992385E-01  2.75508636E-01
  4.51086433E-01  2.87565745E-01  6.28313219E-07 -5.48480000E-05 -3.63137064E-03
 -1.17983699E-02 -1.10909885E-01 -1.34742247E-01  1.10175849E+00  1.00000000E+00
  5.69792516E-02  3.13207212E-01  7.60376742E-01  1.00000000E+00  1.00000000E+00
  6.93516317E-04  5.34150243E-03  2.71366714E-02  1.01992385E-01  2.75508636E-01
  4.51086433E-01  2.87565745E-01  6.28313219E-07 -5.48480000E-05 -3.63137064E-03
 -1.17983699E-02 -1.10909885E-01 -1.34742247E-01  1.10175849E+00  1.00000000E+00
  5.69792516E-02  3.13207212E-01  7.60376742E-01  1.00000000E+00  1.00000000E+00
  6.93516317E-04  5.34150243E-03  2.71366714E-02  1.01992385E-01  2.75508636E-01
  4.51086433E-01  2.87565745E-01  6.28313219E-07 -5.48480000E-05 -3.63137064E-03
 -1.17983699E-02 -1.10909885E-01 -1.34742247E-01  1.10175849E+00  1.00000000E+00
  5.69792516E-02  3.13207212E-01  7.60376742E-01  1.00000000E+00  1.00000000E+00
  6.93516317E-04  5.34150243E-03  2.71366714E-02  1.01992385E-01  2.75508636E-01
  4.51086433E-01  2.87565745E-01  6.28313219E-07 -5.48480000E-05 -3.63137064E-03
 -1.17983699E-02 -1.10909885E-01 -1.34742247E-01  1.10175849E+00  1.00000000E+00
  5.69792516E-02  3.13207212E-01  7.60376742E-01  1.00000000E+00  1.00000000E+00
  3.34987264E-02  2.34800801E-01  8.13682958E-01  1.00000000E+00  1.00000000E+00
  3.34987264E-02  2.34800801E-01  8.13682958E-01  1.00000000E+00  1.00000000E+00
  3.34987264E-02  2.34800801E-01  8.13682958E-01  1.00000000E+00  1.00000000E+00
  3.34987264E-02  2.34800801E-01  8.13682958E-01  1.00000000E+00  1.00000000E+00
  3.34987264E-02  2.34800801E-01  8.13682958E-01  1.00000000E+00  1.00000000E+00
  3.34987264E-02  2.34800801E-01  8.13682958E-01  1.00000000E+00  1.00000000E+00
  3.34987264E-02  2.34800801E-01  8.13682958E-01  1.00000000E+00  1.00000000E+00
  3.34987264E-02  2.34800801E-01  8.13682958E-01  1.00000000E+00  1.00000000E+00
  3.34987264E-02  2.34800801E-01  8.13682958E-01  1.00000000E+00  1.00000000E+00
  3.34987264E-02  2.34800801E-01  8.13682958E-01  1.00000000E+00  1.00000000E+00
Coordinates of each shell                  R   N=         162
 -3.65123547E+00  2.36907372E-01  3.18216638E-01 -3.65123547E+00  2.36907372E-01
  3.18216638E-01 -3.65123547E+00  2.36907372E-01  3.18216638E-01 -3.65123547E+00
  2.36907372E-01  3.18216638E-01 -3.65123547E+00  2.36907372E-01  3.18216638E-01
 -3.65123547E+00  2.36907372E-01  3.18216638E-01 -1.10338354E+00 -9.49030994E-01
 -3.67878573E-01 -1.10338354E+00 -9.49030994E-01 -3.67878573E-01 -1.10338354E+00
 -9.49030994E-01 -3.67878573E-01 -1.10338354E+00 -9.49030994E-01 -3.67878573E-01
 -1.10338354E+00 -9.49030994E-01 -3.67878573E-01 -1.10338354E+00 -9.49030994E-01
 -3.67878573E-01  1.10338366E+00  9.49033602E-01 -3.67876722E-01  1.10338366E+00
  9.49033602E-01 -3.67876722E-01  1.10338366E+00  9.49033602E-01 -3.67876722E-01
  1.10338366E+00  9.49033602E-01 -3.67876722E-01  1.10338366E+00  9.49033602E-01
 -3.67876722E-01  1.10338366E+00  9.49033602E-01 -3.67876722E-01  3.65123542E+00
 -2.36909409E-01  3.18216787E-01  3.65123542E+00 -2.36909409E-01  3.18216787E-01
  3.65123542E+00 -2.36909409E-01  3.18216787E-01  3.65123542E+00 -2.36909409E-01
  3.18216787E-01  3.65123542E+00 -2.36909409E-01  3.18216787E-01  3.65123542E+00
 -2.36909409E-01  3.18216787E-01 -6.88489613E-01 -2.46034739E+00  1.01543625E+00
 -6.88489613E-01 -2.46034739E+00  1.01543625E+00 -6.88489613E-01 -2.46034739E+00
  1.01543625E+00 -1.22528515E+00 -1.90077283E+00 -2.22191687E+00 -1.22528515E+00
 -1.90077283E+00 -2.22191687E+00 -1.22528515E+00 -1.90077283E+00 -2.22191687E+00
  1.22528788E+00  1.90078010E+00 -2.22191283E+00  1.22528788E+00  1.90078010E+00
 -2.22191283E+00  1.22528788E+00  1.90078010E+00 -2.22191283E+00  6.88492490E-01
  2.46034711E+00  1.01544145E+00  6.88492490E-01  2.46034711E+00  1.01544145E+00
  6.88492490E-01  2.46034711E+00  1.01544145E+00  5.18960088E+00  1.16676720E+00
  2.67995786E-01  5.18960088E+00  1.16676720E+00  2.67995786E-01  5.18960088E+00
  1.16676720E+00  2.67995786E-01  3.60032698E+00 -1.05428257E+00  2.23551441E+00
  3.60032698E+00 -1.05428257E+00  2.23551441E+00  3.60032698E+00 -1.05428257E+00
  2.23551441E+00  4.16104712E+00 -1.77240558E+00 -9.99070940E-01  4.16104712E+00
 -1.77240558E+00 -9.99070940E-01  4.16104712E+00 -1.77240558E+00 -9.99070940E-01
 -5.18959853E+00 -1.16677273E+00  2.68001216E-01 -5.18959853E+00 -1.16677273E+00
  2.68001216E-01 -5.18959853E+00 -1.16677273E+00  2.68001216E-01 -3.60032823E+00
  1.05428225E+00  2.23551368E+00 -3.60032823E+00  1.05428225E+00  2.23551368E+00
 -3.60032823E+00  1.05428225E+00  2.23551368E+00 -4.16105430E+00  1.77240102E+00
 -9.99070932E-01 -4.16105430E+00  1.77240102E+00 -9.99070932E-01 -4.16105430E+00
  1.77240102E+00 -9.99070932E-01
Alpha Orbital Energies                     R   N=         106
 -1.01801545E+01 -1.01799963E+01 -1.01761554E+01 -1.01761525E+01 -7.89568959E-01
 -7.20509739E-01 -6.27127287E-01 -5.72011092E-01 -4.61644650E-01 -4.21418382E-01
 -4.21379915E-01 -4.02414071E-01 -3.64450485E-01 -3.52839753E-01 -3.27523685E-01
 -3.20516428E-01 -3.17940872E-01  6.11461024E-02  8.23177344E-02  9.71504165E-02
  1.02548888E-01  1.37681166E-01  1.39926982E-01  1.47327441E-01  1.50396053E-01
  1.56728625E-01  1.58438842E-01  2.26420235E-01  2.50296089E-01  2.52284999E-01
  4.03915196E-01  4.07038302E-01  4.17560378E-01  4.21526241E-01  4.62602265E-01
  5.03702015E-01  5.09667463E-01  5.81657229E-01  6.00121891E-01  6.27673857E-01
  6.45270558E-01  6.46444362E-01  6.51775211E-01  6.61983640E-01  6.68449882E-01
  6.69441660E-01  6.77026021E-01  6.93884233E-01  6.95502715E-01  7.20865213E-01
  7.28301429E-01  7.42817994E-01  8.87529511E-01  8.89271487E-01  9.67423254E-01
  1.09076539E+00  1.15801337E+00  1.18581885E+00  1.23148692E+00  1.24605524E+00
  1.28004845E+00  1.33061821E+00  1.42186911E+00  1.42785942E+00  1.46555987E+00
  1.48146912E+00  1.54652638E+00  1.57815024E+00  1.58897775E+00  1.62487675E+00
  1.63646480E+00  1.64384370E+00  1.65009704E+00  1.66688670E+00  1.67485935E+00
  1.69245132E+00  1.70957680E+00  1.73032822E+00  1.74163774E+00  1.74941466E+00
  1.76860685E+00  1.77965262E+00  1.86900940E+00  1.89491561E+00  1.92366451E+00
  1.96751092E+00  2.01232383E+00  2.07273751E+00  2.07478990E+00  2.14618227E+00
  2.15905969E+00  2.21184243E+00  2.22177692E+00  2.26404184E+00  2.28370503E+00
  2.29227664E+00  2.40722507E+00  2.40728931E+00  2.45909647E+00  2.47777835E+00
  2.49666134E+00  2.50224238E+00  2.57589255E+00  2.61677294E+00  2.67334987E+00
  2.70342448E+00
Alpha MO coefficients                      R   N=       11236
  1.37538557E-02 -2.34881791E-04  4.77588009E-03 -4.16020340E-04  8.71963862E-05
  7.31532037E-05  1.94902904E-03 -7.11392508E-04 -4.87595716E-04  1.90367648E-04
  2.55767728E-04 -5.18110347E-05 -4.73767657E-04  6.24882463E-04  7.04792269E-01
  2.17428053E-02 -1.23335275E-02 -7.08616349E-05 -8.11510418E-04 -1.31180192E-04
  2.18738760E-03 -1.51533473E-03 -3.81164684E-04  9.85848481E-04  2.11968892E-04
 -7.49305649E-05 -5.29843769E-04 -7.37764933E-04  7.04758141E-01  2.17417071E-02
 -1.23324721E-02  7.08677405E-05  8.11490227E-04 -1.31174521E-04 -2.18748275E-03
  1.51515765E-03 -3.81092780E-04  9.85836096E-04 -2.11962000E-04  7.49273838E-05
 -5.29827256E-04 -7.37779810E-04  1.37529988E-02 -2.34906070E-04  4.77568883E-03
  4.16017456E-04 -8.71904693E-05  7.31509030E-05 -1.94895826E-03  7.11352851E-04
 -4.87582361E-04  1.90348623E-04 -2.55752662E-04  5.18003140E-05 -4.73750128E-04
  6.24864127E-04 -1.15699507E-03  1.34899939E-03  3.29386662E-04 -8.93311665E-04
  1.07641006E-03 -1.20428197E-03  1.78361906E-03 -8.51277922E-05 -4.85369650E-04
 -1.32489065E-03 -1.20425433E-03  1.78357416E-03  8.51253083E-05  4.85346792E-04
 -1.32482695E-03 -1.15698334E-03  1.34891262E-03 -3.29374015E-04  8.93268259E-04
  1.07636521E-03 -5.28312353E-04  1.40006522E-04  1.84693901E-04  4.75854932E-05
  1.30423660E-05 -4.50605370E-04  1.74699256E-04  9.21676263E-06  4.64029552E-05
  5.57950600E-05 -3.57567022E-04  2.90423564E-05  5.98460018E-05  2.44048123E-05
 -6.00499957E-05 -5.28330165E-04  1.39981912E-04 -1.84701759E-04 -4.75869314E-05
  1.30430430E-05 -4.50620764E-04  1.74719592E-04 -9.20977935E-06 -4.64006121E-05
  5.57956925E-05 -3.57583680E-04  2.90680406E-05 -5.98422228E-05 -2.44013277E-05
 -6.00517265E-05 -1.76883282E-02 -5.13761188E-04 -4.04112543E-03  1.49204498E-05
 -1.18367960E-04 -2.51046877E-05 -1.44632285E-03  8.71633098E-04  3.45232345E-04
 -3.68208170E-04 -2.91777232E-04  2.25996252E-04  2.95394962E-04 -4.02617616E-04
 -7.04709484E-01 -2.26308387E-02  2.15563677E-02 -1.20482095E-04  4.32670728E-04
  5.65348998E-05  1.82187228E-03  3.70196552E-03  1.45157872E-03 -2.77055934E-04
 -1.93527902E-04  4.53110511E-05  3.63687342E-04 -4.04485032E-04  7.04743615E-01
  2.26318905E-02 -2.15569624E-02 -1.20477588E-04  4.32711063E-04 -5.65387619E-05
  1.82176566E-03  3.70204504E-03 -1.45158793E-03  2.77103626E-04 -1.93538321E-04
  4.53156128E-05 -3.63716728E-04  4.04452380E-04  1.76889966E-02  5.13751404E-04
  4.04135565E-03  1.49380310E-05 -1.18371068E-04  2.51079876E-05 -1.44641480E-03
  8.71669774E-04 -3.45261166E-04  3.68217432E-04 -2.91788449E-04  2.25996536E-04
 -2.95416375E-04  4.02646517E-04  3.07944328E-04 -1.81331940E-03 -2.08925634E-04
  8.73870025E-04 -9.77902679E-04  5.71695883E-04 -8.40422124E-04  1.15673311E-04
  5.53641597E-04  1.28358435E-03 -5.71753049E-04  8.40509376E-04  1.15677577E-04
  5.53666285E-04 -1.28364706E-03 -3.08002188E-04  1.81338186E-03 -2.08941597E-04
  8.73911167E-04  9.77958483E-04 -3.96471470E-04 -5.03102455E-04  1.64956035E-04
  3.52189987E-05  9.08199826E-06 -3.05819143E-04  4.56946450E-04 -1.53261189E-04
 -3.79296136E-05  8.80902441E-06 -3.75285747E-04  4.43188733E-04 -9.94855570E-05
 -8.26410616E-05 -5.97747304E-05  3.96446393E-04  5.03108534E-04  1.64947260E-04
  3.52172506E-05 -9.08060943E-06  3.05797083E-04 -4.56934031E-04 -1.53260520E-04
 -3.79326112E-05 -8.80563077E-06  3.75268614E-04 -4.43189930E-04 -9.94869594E-05
 -8.26425373E-05  5.97714233E-05 -7.03390732E-01 -2.19438864E-02  1.37449500E-02
  5.08908451E-04 -2.74247687E-04 -1.21352507E-04  2.15084385E-03 -5.50971011E-04
 -6.81073831E-04 -2.29272752E-04 -2.03257544E-04  7.44173618E-05  2.68322940E-04
 -4.00036187E-04  1.75753180E-02  3.01139212E-04 -2.25466793E-03 -3.56739024E-04
  1.52432962E-04  7.68095869E-05  3.04830364E-03 -2.79485084E-04 -4.95763247E-04
 -5.03909198E-04 -2.71597389E-04 -1.50902965E-05  3.53142154E-04 -3.75659552E-04
 -1.76238168E-02 -3.04327820E-04  2.26551886E-03 -3.56832841E-04  1.53052302E-04
 -7.70087475E-05  3.04877706E-03 -2.79622858E-04  4.96853497E-04  5.04777295E-04
 -2.72818877E-04 -1.42816325E-05 -3.54687274E-04  3.77029458E-04  7.05868602E-01
  2.20202367E-02 -1.37858393E-02  5.10595664E-04 -2.75183310E-04  1.21939384E-04
  2.15546544E-03 -5.51373844E-04  6.80981281E-04  2.29900488E-04 -2.04023302E-04
  7.47893441E-05 -2.69364350E-04  4.01133069E-04  5.34820060E-05 -6.39525767E-05
  4.01276970E-05  4.96125747E-06  1.86952351E-05  2.96978204E-04 -4.30012583E-04
 -1.46818755E-04 -2.58556016E-07  3.17578029E-05 -2.97956676E-04  4.29928273E-04
 -1.46231754E-04 -4.86068156E-07 -3.17520890E-05 -5.52650383E-05  6.45749549E-05
  4.03459798E-05  4.73695797E-06 -1.83695727E-05 -9.80922194E-04  1.09226777E-03
  1.01601114E-03  1.01503366E-03 -7.81210516E-05 -8.78225637E-04  1.57653549E-03
 -1.82835910E-04 -5.32631151E-04  1.24647671E-03 -7.33498865E-04  1.51686557E-03
  2.30265421E-04 -9.89198789E-04 -9.10355608E-04  9.77085585E-04 -1.08769068E-03
  1.01258360E-03  1.01149796E-03  7.80409365E-05  8.75349137E-04 -1.57092214E-03
 -1.82415451E-04 -5.30762549E-04 -1.24203137E-03  7.30097331E-04 -1.51149344E-03
  2.29535665E-04 -9.85529613E-04  9.07182047E-04  7.05916649E-01  2.17514719E-02
 -1.16519464E-02 -4.80736561E-04  2.66272848E-04  1.67347736E-04 -1.31681824E-03
  1.14408345E-04 -2.49476153E-05  1.78411895E-04  2.17489794E-04 -1.06253954E-04
 -2.96579132E-04  3.11079986E-04 -1.38233496E-02 -9.07372793E-04  3.08851001E-03
  2.81307229E-05 -1.76551820E-04 -5.70733222E-05 -1.39737521E-04  3.87531126E-05