Butano diedro spostato da usare per armonia - tors CH3                  
Freq      RB3LYP                                                      CC-pVDZ             
Number of atoms                            I               14
Charge                                     I                0
Multiplicity                               I                1
Number of electrons                        I               34
Number of alpha electrons                  I               17
Number of beta electrons                   I               17
Number of basis functions                  I              106
Number of independant functions            I              106
Number of point charges in /Mol/           I                0
Number of translation vectors              I                0
Number of symbols in /Mol/                 I                0
Info1-9                                    I   N=           9
          26          24        1001           0           0         100
           6          18        -501
Num ILSW                                   I              100
ILSW                                       I   N=         100
           0           0           0           0           2           0
           0           0           3           0         402      200000
           5           0           0           0           0           0
           0      800000           1           0           1           0
           1           0           0           0     1000000           0
           0           0           0           0          -1           0
           0           0           0           0           0           0
           0           0           0           1           0           0
           0           0           1      720000      810000           0
           0           0           0           0           0           0
           0           0           0           0           0           0
           0           0           0           0           0           0
           0           0           0           0           0           0
           0           0           0           0           0           0
           0           0           0           0           0           0
           0           0           0           0           0           0
           0           0           0           0
Number of contracted shells                I               54
Highest angular momentum                   I                2
Largest degree of contraction              I                7
Number of primitive shells                 I              130
Pure/Cartesian d shells                    I                0
Pure/Cartesian f shells                    I                0
Virial Ratio                               R      2.009397461047636E+00
SCF Energy                                 R     -1.584564275074752E+02
Total Energy                               R     -1.584564275074752E+02
RMS Force                                  R      1.369217051799621E-03
RMS Density                                R      1.604038709114207E-09
Atomic numbers                             I   N=          14
           6           6           6           6           1           1
           1           1           1           1           1           1
           1           1
Nuclear charges                            R   N=          14
  6.00000000E+00  6.00000000E+00  6.00000000E+00  6.00000000E+00  1.00000000E+00
  1.00000000E+00  1.00000000E+00  1.00000000E+00  1.00000000E+00  1.00000000E+00
  1.00000000E+00  1.00000000E+00  1.00000000E+00  1.00000000E+00
Current cartesian coordinates              R   N=          42
 -3.71702619E+00  2.21967080E-01  8.24324476E-03 -1.07017122E+00 -9.73628645E-01
 -1.04135108E-02  1.07708987E+00  9.71444639E-01 -1.66130350E-02  3.70894692E+00
 -2.25241761E-01  1.58802832E-02 -8.54391084E-01 -2.26215531E+00  1.61848030E+00
 -8.58937302E-01 -2.17359905E+00 -1.70882553E+00  8.78929710E-01  2.18692916E+00
 -1.70441618E+00  8.68089407E-01  2.24292139E+00  1.63028438E+00  5.20889025E+00
  1.21934410E+00 -1.45663845E-02  3.99050180E+00 -1.38948916E+00  1.72293543E+00
  3.99494204E+00 -1.46572871E+00 -1.63622714E+00 -3.71706734E+00  2.06977040E+00
 -9.58075078E-01 -5.14536116E+00 -9.96203272E-01 -8.88472916E-01 -4.35863268E+00
  6.00962573E-01  1.95630121E+00
Atom Types                                 C   N=          14
                                                            
                                                            
                                                
Int Atom Types                             I   N=          14
           0           0           0           0           0           0
           0           0           0           0           0           0
           0           0
Force Field                                I                0
MM charges                                 R   N=          14
  0.00000000E+00  0.00000000E+00  0.00000000E+00  0.00000000E+00  0.00000000E+00
  0.00000000E+00  0.00000000E+00  0.00000000E+00  0.00000000E+00  0.00000000E+00
  0.00000000E+00  0.00000000E+00  0.00000000E+00  0.00000000E+00
Integer atomic weights                     I   N=          14
          12          12          12          12           1           1
           1           1           1           1           1           1
           1           1
Real atomic weights                        R   N=          14
  1.20000000E+01  1.20000000E+01  1.20000000E+01  1.20000000E+01  1.00782504E+00
  1.00782504E+00  1.00782504E+00  1.00782504E+00  1.00782504E+00  1.00782504E+00
  1.00782504E+00  1.00782504E+00  1.00782504E+00  1.00782504E+00
Atom residue info                          I   N=          14
           0           0           0           0           0           0
           0           0           0           0           0           0
           0           0
Atom fragment info                         I   N=          14
           0           0           0           0           0           0
           0           0           0           0           0           0
           0           0
Atom residue num                           I   N=          14
           0           0           0           0           0           0
           0           0           0           0           0           0
           0           0
Nuclear spins                              I   N=          14
           0           0           0           0           1           1
           1           1           1           1           1           1
           1           1
Nuclear ZEff                               R   N=          14
 -3.60000000E+00 -3.60000000E+00 -3.60000000E+00 -3.60000000E+00 -1.00000000E+00
 -1.00000000E+00 -1.00000000E+00 -1.00000000E+00 -1.00000000E+00 -1.00000000E+00
 -1.00000000E+00 -1.00000000E+00 -1.00000000E+00 -1.00000000E+00
Nuclear QMom                               R   N=          14
  0.00000000E+00  0.00000000E+00  0.00000000E+00  0.00000000E+00  0.00000000E+00
  0.00000000E+00  0.00000000E+00  0.00000000E+00  0.00000000E+00  0.00000000E+00
  0.00000000E+00  0.00000000E+00  0.00000000E+00  0.00000000E+00
Nuclear GFac                               R   N=          14
  0.00000000E+00  0.00000000E+00  0.00000000E+00  0.00000000E+00  2.79284600E+00
  2.79284600E+00  2.79284600E+00  2.79284600E+00  2.79284600E+00  2.79284600E+00
  2.79284600E+00  2.79284600E+00  2.79284600E+00  2.79284600E+00
MicOpt                                     I   N=          14
          -1          -1          -1          -1          -1          -1
          -1          -1          -1          -1          -1          -1
          -1          -1
Constraint Structure                       R   N=          42
 -3.71702619E+00  2.21967080E-01  8.24324476E-03 -1.07017122E+00 -9.73628645E-01
 -1.04135108E-02  1.07708987E+00  9.71444639E-01 -1.66130350E-02  3.70894692E+00
 -2.25241761E-01  1.58802832E-02 -8.54391084E-01 -2.26215531E+00  1.61848030E+00
 -8.58937302E-01 -2.17359905E+00 -1.70882553E+00  8.78929710E-01  2.18692916E+00
 -1.70441618E+00  8.68089407E-01  2.24292139E+00  1.63028438E+00  5.20889025E+00
  1.21934410E+00 -1.45663845E-02  3.99050180E+00 -1.38948916E+00  1.72293543E+00
  3.99494204E+00 -1.46572871E+00 -1.63622714E+00 -3.71706734E+00  2.06977040E+00
 -9.58075078E-01 -5.14536116E+00 -9.96203272E-01 -8.88472916E-01 -4.35863268E+00
  6.00962573E-01  1.95630121E+00
ONIOM Charges                              I   N=          16
           0           0           0           0           0           0
           0           0           0           0           0           0
           0           0           0           0
ONIOM Multiplicities                       I   N=          16
           1           0           0           0           0           0
           0           0           0           0           0           0
           0           0           0           0
Atom Layers                                I   N=          14
           0           0           0           0           0           0
           0           0           0           0           0           0
           0           0
Atom Modifiers                             I   N=          14
           0           0           0           0           0           0
           0           0           0           0           0           0
           0           0
Atom Modified Types                        C   N=          14
                                                            
                                                            
                                                
Int Atom Modified Types                    I   N=          14
           0           0           0           0           0           0
           0           0           0           0           0           0
           0           0
Link Atoms                                 I   N=          14
           0           0           0           0           0           0
           0           0           0           0           0           0
           0           0
Atom Modified MM Charges                   R   N=          14
  0.00000000E+00  0.00000000E+00  0.00000000E+00  0.00000000E+00  0.00000000E+00
  0.00000000E+00  0.00000000E+00  0.00000000E+00  0.00000000E+00  0.00000000E+00
  0.00000000E+00  0.00000000E+00  0.00000000E+00  0.00000000E+00
Link Distances                             R   N=          56
  0.00000000E+00  0.00000000E+00  0.00000000E+00  0.00000000E+00  0.00000000E+00
  0.00000000E+00  0.00000000E+00  0.00000000E+00  0.00000000E+00  0.00000000E+00
  0.00000000E+00  0.00000000E+00  0.00000000E+00  0.00000000E+00  0.00000000E+00
  0.00000000E+00  0.00000000E+00  0.00000000E+00  0.00000000E+00  0.00000000E+00
  0.00000000E+00  0.00000000E+00  0.00000000E+00  0.00000000E+00  0.00000000E+00
  0.00000000E+00  0.00000000E+00  0.00000000E+00  0.00000000E+00  0.00000000E+00
  0.00000000E+00  0.00000000E+00  0.00000000E+00  0.00000000E+00  0.00000000E+00
  0.00000000E+00  0.00000000E+00  0.00000000E+00  0.00000000E+00  0.00000000E+00
  0.00000000E+00  0.00000000E+00  0.00000000E+00  0.00000000E+00  0.00000000E+00
  0.00000000E+00  0.00000000E+00  0.00000000E+00  0.00000000E+00  0.00000000E+00
  0.00000000E+00  0.00000000E+00  0.00000000E+00  0.00000000E+00  0.00000000E+00
  0.00000000E+00
MxBond                                     I                4
NBond                                      I   N=          14
           4           4           4           4           1           1
           1           1           1           1           1           1
           1           1
IBond                                      I   N=          56
           2          12          13          14           1           3
           5           6           2           4           7           8
           3           9          10          11           2           0
           0           0           2           0           0           0
           3           0           0           0           3           0
           0           0           4           0           0           0
           4           0           0           0           4           0
           0           0           1           0           0           0
           1           0           0           0           1           0
           0           0
RBond                                      R   N=          56
  1.00000000E+00  1.00000000E+00  1.00000000E+00  1.00000000E+00  1.00000000E+00
  1.00000000E+00  1.00000000E+00  1.00000000E+00  1.00000000E+00  1.00000000E+00
  1.00000000E+00  1.00000000E+00  1.00000000E+00  1.00000000E+00  1.00000000E+00
  1.00000000E+00  1.00000000E+00  0.00000000E+00  0.00000000E+00  0.00000000E+00
  1.00000000E+00  0.00000000E+00  0.00000000E+00  0.00000000E+00  1.00000000E+00
  0.00000000E+00  0.00000000E+00  0.00000000E+00  1.00000000E+00  0.00000000E+00
  0.00000000E+00  0.00000000E+00  1.00000000E+00  0.00000000E+00  0.00000000E+00
  0.00000000E+00  1.00000000E+00  0.00000000E+00  0.00000000E+00  0.00000000E+00
  1.00000000E+00  0.00000000E+00  0.00000000E+00  0.00000000E+00  1.00000000E+00
  0.00000000E+00  0.00000000E+00  0.00000000E+00  1.00000000E+00  0.00000000E+00
  0.00000000E+00  0.00000000E+00  1.00000000E+00  0.00000000E+00  0.00000000E+00
  0.00000000E+00
Shell types                                I   N=          54
           0           0           0           1           1          -2
           0           0           0           1           1          -2
           0           0           0           1           1          -2
           0           0           0           1           1          -2
           0           0           1           0           0           1
           0           0           1           0           0           1
           0           0           1           0           0           1
           0           0           1           0           0           1
           0           0           1           0           0           1
Number of primitives per shell             I   N=          54
           7           7           1           3           1           1
           7           7           1           3           1           1
           7           7           1           3           1           1
           7           7           1           3           1           1
           3           1           1           3           1           1
           3           1           1           3           1           1
           3           1           1           3           1           1
           3           1           1           3           1           1
           3           1           1           3           1           1
Shell to atom map                          I   N=          54
           1           1           1           1           1           1
           2           2           2           2           2           2
           3           3           3           3           3           3
           4           4           4           4           4           4
           5           5           5           6           6           6
           7           7           7           8           8           8
           9           9           9          10          10          10
          11          11          11          12          12          12
          13          13          13          14          14          14
Primitive exponents                        R   N=         130
  6.66500000E+03  1.00000000E+03  2.28000000E+02  6.47100000E+01  2.10600000E+01
  7.49500000E+00  2.79700000E+00  6.66500000E+03  1.00000000E+03  6.47100000E+01
  2.10600000E+01  7.49500000E+00  2.79700000E+00  5.21500000E-01  1.59600000E-01
  9.43900000E+00  2.00200000E+00  5.45600000E-01  1.51700000E-01  5.50000000E-01
  6.66500000E+03  1.00000000E+03  2.28000000E+02  6.47100000E+01  2.10600000E+01
  7.49500000E+00  2.79700000E+00  6.66500000E+03  1.00000000E+03  6.47100000E+01
  2.10600000E+01  7.49500000E+00  2.79700000E+00  5.21500000E-01  1.59600000E-01
  9.43900000E+00  2.00200000E+00  5.45600000E-01  1.51700000E-01  5.50000000E-01
  6.66500000E+03  1.00000000E+03  2.28000000E+02  6.47100000E+01  2.10600000E+01
  7.49500000E+00  2.79700000E+00  6.66500000E+03  1.00000000E+03  6.47100000E+01
  2.10600000E+01  7.49500000E+00  2.79700000E+00  5.21500000E-01  1.59600000E-01
  9.43900000E+00  2.00200000E+00  5.45600000E-01  1.51700000E-01  5.50000000E-01
  6.66500000E+03  1.00000000E+03  2.28000000E+02  6.47100000E+01  2.10600000E+01
  7.49500000E+00  2.79700000E+00  6.66500000E+03  1.00000000E+03  6.47100000E+01
  2.10600000E+01  7.49500000E+00  2.79700000E+00  5.21500000E-01  1.59600000E-01
  9.43900000E+00  2.00200000E+00  5.45600000E-01  1.51700000E-01  5.50000000E-01
  1.30100000E+01  1.96200000E+00  4.44600000E-01  1.22000000E-01  7.27000000E-01
  1.30100000E+01  1.96200000E+00  4.44600000E-01  1.22000000E-01  7.27000000E-01
  1.30100000E+01  1.96200000E+00  4.44600000E-01  1.22000000E-01  7.27000000E-01
  1.30100000E+01  1.96200000E+00  4.44600000E-01  1.22000000E-01  7.27000000E-01
  1.30100000E+01  1.96200000E+00  4.44600000E-01  1.22000000E-01  7.27000000E-01
  1.30100000E+01  1.96200000E+00  4.44600000E-01  1.22000000E-01  7.27000000E-01
  1.30100000E+01  1.96200000E+00  4.44600000E-01  1.22000000E-01  7.27000000E-01
  1.30100000E+01  1.96200000E+00  4.44600000E-01  1.22000000E-01  7.27000000E-01
  1.30100000E+01  1.96200000E+00  4.44600000E-01  1.22000000E-01  7.27000000E-01
  1.30100000E+01  1.96200000E+00  4.44600000E-01  1.22000000E-01  7.27000000E-01
Contraction coefficients                   R   N=         130
  6.93516317E-04  5.34150243E-03  2.71366714E-02  1.01992385E-01  2.75508636E-01
  4.51086433E-01  2.87565745E-01  6.28313219E-07 -5.48480000E-05 -3.63137064E-03
 -1.17983699E-02 -1.10909885E-01 -1.34742247E-01  1.10175849E+00  1.00000000E+00
  5.69792516E-02  3.13207212E-01  7.60376742E-01  1.00000000E+00  1.00000000E+00
  6.93516317E-04  5.34150243E-03  2.71366714E-02  1.01992385E-01  2.75508636E-01
  4.51086433E-01  2.87565745E-01  6.28313219E-07 -5.48480000E-05 -3.63137064E-03
 -1.17983699E-02 -1.10909885E-01 -1.34742247E-01  1.10175849E+00  1.00000000E+00
  5.69792516E-02  3.13207212E-01  7.60376742E-01  1.00000000E+00  1.00000000E+00
  6.93516317E-04  5.34150243E-03  2.71366714E-02  1.01992385E-01  2.75508636E-01
  4.51086433E-01  2.87565745E-01  6.28313219E-07 -5.48480000E-05 -3.63137064E-03
 -1.17983699E-02 -1.10909885E-01 -1.34742247E-01  1.10175849E+00  1.00000000E+00
  5.69792516E-02  3.13207212E-01  7.60376742E-01  1.00000000E+00  1.00000000E+00
  6.93516317E-04  5.34150243E-03  2.71366714E-02  1.01992385E-01  2.75508636E-01
  4.51086433E-01  2.87565745E-01  6.28313219E-07 -5.48480000E-05 -3.63137064E-03
 -1.17983699E-02 -1.10909885E-01 -1.34742247E-01  1.10175849E+00  1.00000000E+00
  5.69792516E-02  3.13207212E-01  7.60376742E-01  1.00000000E+00  1.00000000E+00
  3.34987264E-02  2.34800801E-01  8.13682958E-01  1.00000000E+00  1.00000000E+00
  3.34987264E-02  2.34800801E-01  8.13682958E-01  1.00000000E+00  1.00000000E+00
  3.34987264E-02  2.34800801E-01  8.13682958E-01  1.00000000E+00  1.00000000E+00
  3.34987264E-02  2.34800801E-01  8.13682958E-01  1.00000000E+00  1.00000000E+00
  3.34987264E-02  2.34800801E-01  8.13682958E-01  1.00000000E+00  1.00000000E+00
  3.34987264E-02  2.34800801E-01  8.13682958E-01  1.00000000E+00  1.00000000E+00
  3.34987264E-02  2.34800801E-01  8.13682958E-01  1.00000000E+00  1.00000000E+00
  3.34987264E-02  2.34800801E-01  8.13682958E-01  1.00000000E+00  1.00000000E+00
  3.34987264E-02  2.34800801E-01  8.13682958E-01  1.00000000E+00  1.00000000E+00
  3.34987264E-02  2.34800801E-01  8.13682958E-01  1.00000000E+00  1.00000000E+00
Coordinates of each shell                  R   N=         162
 -3.71702619E+00  2.21967080E-01  8.24324476E-03 -3.71702619E+00  2.21967080E-01
  8.24324476E-03 -3.71702619E+00  2.21967080E-01  8.24324476E-03 -3.71702619E+00
  2.21967080E-01  8.24324476E-03 -3.71702619E+00  2.21967080E-01  8.24324476E-03
 -3.71702619E+00  2.21967080E-01  8.24324476E-03 -1.07017122E+00 -9.73628645E-01
 -1.04135108E-02 -1.07017122E+00 -9.73628645E-01 -1.04135108E-02 -1.07017122E+00
 -9.73628645E-01 -1.04135108E-02 -1.07017122E+00 -9.73628645E-01 -1.04135108E-02
 -1.07017122E+00 -9.73628645E-01 -1.04135108E-02 -1.07017122E+00 -9.73628645E-01
 -1.04135108E-02  1.07708987E+00  9.71444639E-01 -1.66130350E-02  1.07708987E+00
  9.71444639E-01 -1.66130350E-02  1.07708987E+00  9.71444639E-01 -1.66130350E-02
  1.07708987E+00  9.71444639E-01 -1.66130350E-02  1.07708987E+00  9.71444639E-01
 -1.66130350E-02  1.07708987E+00  9.71444639E-01 -1.66130350E-02  3.70894692E+00
 -2.25241761E-01  1.58802832E-02  3.70894692E+00 -2.25241761E-01  1.58802832E-02
  3.70894692E+00 -2.25241761E-01  1.58802832E-02  3.70894692E+00 -2.25241761E-01
  1.58802832E-02  3.70894692E+00 -2.25241761E-01  1.58802832E-02  3.70894692E+00
 -2.25241761E-01  1.58802832E-02 -8.54391084E-01 -2.26215531E+00  1.61848030E+00
 -8.54391084E-01 -2.26215531E+00  1.61848030E+00 -8.54391084E-01 -2.26215531E+00
  1.61848030E+00 -8.58937302E-01 -2.17359905E+00 -1.70882553E+00 -8.58937302E-01
 -2.17359905E+00 -1.70882553E+00 -8.58937302E-01 -2.17359905E+00 -1.70882553E+00
  8.78929710E-01  2.18692916E+00 -1.70441618E+00  8.78929710E-01  2.18692916E+00
 -1.70441618E+00  8.78929710E-01  2.18692916E+00 -1.70441618E+00  8.68089407E-01
  2.24292139E+00  1.63028438E+00  8.68089407E-01  2.24292139E+00  1.63028438E+00
  8.68089407E-01  2.24292139E+00  1.63028438E+00  5.20889025E+00  1.21934410E+00
 -1.45663845E-02  5.20889025E+00  1.21934410E+00 -1.45663845E-02  5.20889025E+00
  1.21934410E+00 -1.45663845E-02  3.99050180E+00 -1.38948916E+00  1.72293543E+00
  3.99050180E+00 -1.38948916E+00  1.72293543E+00  3.99050180E+00 -1.38948916E+00
  1.72293543E+00  3.99494204E+00 -1.46572871E+00 -1.63622714E+00  3.99494204E+00
 -1.46572871E+00 -1.63622714E+00  3.99494204E+00 -1.46572871E+00 -1.63622714E+00
 -3.71706734E+00  2.06977040E+00 -9.58075078E-01 -3.71706734E+00  2.06977040E+00
 -9.58075078E-01 -3.71706734E+00  2.06977040E+00 -9.58075078E-01 -5.14536116E+00
 -9.96203272E-01 -8.88472916E-01 -5.14536116E+00 -9.96203272E-01 -8.88472916E-01
 -5.14536116E+00 -9.96203272E-01 -8.88472916E-01 -4.35863268E+00  6.00962573E-01
  1.95630121E+00 -4.35863268E+00  6.00962573E-01  1.95630121E+00 -4.35863268E+00
  6.00962573E-01  1.95630121E+00
Alpha Orbital Energies                     R   N=         106
 -1.01805506E+01 -1.01800715E+01 -1.01758858E+01 -1.01756908E+01 -7.90109254E-01
 -7.19910511E-01 -6.27414686E-01 -5.72448553E-01 -4.62350728E-01 -4.22450704E-01
 -4.16848178E-01 -4.05997437E-01 -3.65073707E-01 -3.46520137E-01 -3.32909581E-01
 -3.21737498E-01 -3.16445729E-01  6.12009663E-02  8.01753582E-02  9.60672380E-02
  1.00155740E-01  1.31485679E-01  1.39091535E-01  1.46232012E-01  1.50298439E-01
  1.62834026E-01  1.83533022E-01  2.27558369E-01  2.33164954E-01  2.57641086E-01
  4.02053678E-01  4.06739679E-01  4.13565507E-01  4.21879575E-01  4.55196952E-01
  5.12168282E-01  5.21829992E-01  5.82635930E-01  6.09179759E-01  6.32789981E-01
  6.43419545E-01  6.46861118E-01  6.49844307E-01  6.61632854E-01  6.65819524E-01
  6.68480398E-01  6.75044499E-01  6.86396419E-01  6.97601305E-01  7.14714706E-01
  7.34518765E-01  7.48642112E-01  8.87569944E-01  8.92398515E-01  9.61455651E-01
  1.08356700E+00  1.19421016E+00  1.21192335E+00  1.22449441E+00  1.23058295E+00
  1.29679563E+00  1.33710912E+00  1.41636759E+00  1.42631459E+00  1.44184402E+00
  1.49129194E+00  1.55986672E+00  1.56567884E+00  1.60142022E+00  1.61795773E+00
  1.62785895E+00  1.63475871E+00  1.65022392E+00  1.66038432E+00  1.68954784E+00
  1.69667708E+00  1.70500764E+00  1.72337034E+00  1.73134562E+00  1.75115314E+00
  1.79032945E+00  1.80306184E+00  1.86807398E+00  1.87951261E+00  1.94708890E+00
  1.97766088E+00  2.00160914E+00  2.08676765E+00  2.10132142E+00  2.12304125E+00
  2.15667094E+00  2.20561593E+00  2.22051037E+00  2.27831860E+00  2.30814159E+00
  2.32646057E+00  2.40641441E+00  2.41022739E+00  2.41394944E+00  2.45586876E+00
  2.47736284E+00  2.51701771E+00  2.56837205E+00  2.62766977E+00  2.68027790E+00
  2.71547903E+00
Alpha MO coefficients                      R   N=       11236
  1.34859931E-03 -3.91710072E-04  1.22304642E-03 -2.96501036E-04  6.25145829E-05
 -6.15196945E-05  3.24534441E-04 -1.21855880E-05  1.32931326E-04 -6.42553412E-05
  3.96122694E-05 -3.65361119E-05 -3.19633525E-04  2.42795934E-04  1.77168315E-01
  4.95428981E-03  2.29981280E-03 -1.23513993E-04 -4.40245331E-04 -4.66605228E-06
  2.29901354E-03  1.31349491E-03  1.39530647E-05  6.28631007E-04  4.73151145E-05
 -2.17422937E-05 -1.80886667E-04 -8.66389703E-04  9.80868421E-01  3.07430684E-02
 -2.23292333E-02 -4.69555980E-05  9.04652072E-04 -1.63679995E-05 -8.58290670E-04
  3.31198718E-03  1.09284386E-05  9.98342233E-04  3.12226635E-06  3.19968107E-05
 -6.58831884E-04 -3.77713447E-04  1.80934356E-02 -8.68395966E-06  6.27243047E-03
  3.58224713E-04 -1.35356998E-04  3.76842378E-06 -2.40983175E-03  1.01824964E-03
 -5.40725437E-05  4.50853943E-04 -1.73082635E-05  1.42719028E-06 -6.12208699E-04
  7.80907631E-04 -6.97170566E-04  7.29275743E-04  1.01147169E-04 -1.45895771E-04
  3.36776401E-04 -6.44495286E-04  7.45737673E-04  1.60655853E-04 -9.00792715E-05
 -3.39578272E-04 -1.20985866E-03  2.16989013E-03 -1.77384764E-04  9.49140248E-04
 -1.67957422E-03 -1.23322639E-03  2.07164565E-03 -1.88939098E-04  1.01559291E-03
  1.65848078E-03 -6.67380131E-04 -1.75363260E-04  2.38931398E-04  6.74219101E-05
  7.17413999E-07 -5.20687530E-04  2.70997556E-04 -4.28184571E-05 -1.52899088E-07
  7.67684474E-05 -5.13067545E-04  2.26274985E-04 -4.41252199E-05 -4.19739205E-06
 -7.74447112E-05 -2.17715232E-04 -2.51631577E-04 -1.52722921E-05  3.74762055E-05
 -9.22876931E-05 -1.42640621E-04  2.24205781E-04 -2.37070601E-05  1.09857812E-05
 -4.95677087E-05 -4.50196601E-05 -2.68106846E-04 -7.58745270E-05 -2.40735219E-05
 -3.81387632E-05  1.88349839E-02  1.19901888E-04  6.30423516E-03 -2.54908586E-04
  1.17324333E-04  2.68909901E-05  2.54277428E-03 -5.20379745E-04 -6.55188956E-04
  5.36213870E-04  2.35842760E-05  5.48621264E-05 -5.68540407E-04  7.29420258E-04
  9.80871249E-01  3.10141428E-02 -2.49425224E-02  1.25776543E-04 -8.12456629E-04
 -4.54646451E-05 -3.21418862E-04 -4.21101961E-03  3.88709740E-04  8.30610546E-04
 -4.47010475E-05 -5.22322576E-05 -6.15572871E-04 -9.36559882E-05 -1.77137565E-01
 -6.20837839E-03  1.09923418E-02  1.50170069E-04  1.25910479E-04  1.39076499E-05
 -2.35525825E-03 -2.76407610E-03 -4.73976703E-05  3.01426427E-04 -1.01231770E-05
  1.18205516E-05  6.88674749E-05 -7.40888761E-04 -5.71181984E-03 -4.64342328E-04
 -9.03675450E-04  2.19239426E-04  4.97977311E-05 -5.60165309E-06  3.81576285E-04
 -4.81295361E-04  6.55972509E-05 -2.24641259E-04 -4.72362323E-06  2.57886950E-06
 -6.78407559E-05  1.28230041E-06 -1.11135844E-03  1.83350740E-03  1.87465880E-04
 -1.04882075E-03  1.62254771E-03 -9.53298215E-04  2.14615867E-03  1.59714417E-04
 -9.33685989E-04 -1.67572874E-03 -2.87451783E-04  1.03264695E-04 -8.29691666E-05
 -2.44831690E-04  2.84307939E-04 -2.62884255E-04  1.14735423E-06 -4.37775490E-05
 -2.25123971E-04 -2.56714181E-04  5.10765194E-05  4.73359024E-04 -4.87049647E-05
  1.16820296E-05 -7.37424372E-06  4.64819437E-05 -4.29971239E-04  1.21209816E-04
  5.71220381E-05  1.06353881E-05  5.93073052E-05 -4.17168016E-04  1.20562740E-04
  5.65556364E-05 -2.08260596E-05 -5.98495485E-04 -3.30531189E-04  3.28642697E-05
  8.88176360E-05 -6.42936913E-05 -6.37756815E-04 -1.51383234E-04 -2.43038980E-04
 -5.72808304E-05 -2.95656261E-06 -5.26831867E-04  6.78407091E-04  3.22249534E-05
 -3.24127087E-05  8.28662046E-05 -1.84546430E-02 -9.57698973E-04  2.97350498E-03
  2.10935072E-05 -1.67368505E-05 -6.03496747E-06  1.36868715E-03 -5.77843906E-04
  1.39215240E-04 -5.05305668E-05 -3.75604606E-06 -7.83667317E-06  1.93901237E-05
 -8.60297483E-05  2.67711258E-03 -3.69420391E-04 -6.60286196E-05 -2.71178464E-04
  2.50571856E-05  6.77032603E-06  2.94472909E-03 -6.97063906E-04 -1.05983555E-04
 -1.64406584E-04  8.88710652E-06 -1.06538024E-05 -5.97783654E-05 -7.92634794E-06
 -1.88266460E-02 -7.78065687E-04  4.04145193E-03 -3.07625379E-04  2.44483587E-04
 -5.29581562E-06  2.49378148E-03 -2.92925903E-04  5.46783073E-05  6.27957452E-04
 -2.02966550E-05  4.36959888E-06 -5.55734463E-04  5.60696949E-04  9.96449021E-01
  3.10151362E-02 -1.84911335E-02  7.25248723E-04 -4.13221618E-04  1.02624433E-05
  2.82862582E-03 -3.06549195E-04  1.29519443E-05  3.75132324E-04 -1.29178946E-05
  1.19053532E-06 -4.51259034E-04  5.43493905E-04 -2.09557504E-04 -2.71509237E-04
 -2.18993272E-04  7.18113020E-05  7.36259481E-05 -2.03909772E-04 -3.86363027E-04
 -2.25631328E-04  6.73303351E-05 -6.08432904E-05 -3.90492650E-04  2.27829131E-04
  2.17851663E-05 -3.63758557E-05 -2.92036209E-05 -3.86838416E-04  1.91479843E-04
  2.36688566E-05 -3.69160968E-05  2.99190283E-05 -1.47344617E-03  1.54784057E-03
  1.36500164E-03  1.47284647E-03 -3.16155088E-05 -1.14451803E-03  2.28409450E-03
  7.42608252E-05 -1.09299185E-03  1.59692288E-03 -1.13745230E-03  2.27906747E-03
  8.09900536E-05 -1.16178526E-03 -1.54495334E-03 -1.05338365E-04  1.03313954E-04
 -1.55993035E-05 -1.75596701E-05  1.07602373E-05 -8.36231472E-05  2.23682117E-04
  2.50418968E-05  5.42440070E-05  2.19381571E-05 -1.19179648E-04 -6.00129993E-05
 -3.17919897E-05  1.55253635E-06 -3.31399740E-05  9.96444045E-01  3.09294256E-02
 -1.82672463E-02 -7.65226311E-04  4.22303903E-04  6.20590902E-05 -2.58572332E-03
  5.63149209E-04 -4.06123180E-04  3.54318853E-04  4.45230849E-05  7.59577532E-05
 -4.49954398E-04  5.65117828E-04 -1.87097312E-02 -7.99422486E-04  4.03873891E-03
  2.90852235E-04 -2.43078542E-04 -4.45239435E-06 -2.49640041E-03  2.81242865E-04