Butano diedro spostato da usare per armonia                             
Freq      RB3LYP                                                      CC-pVDZ             
Number of atoms                            I               14
Charge                                     I                0
Multiplicity                               I                1
Number of electrons                        I               34
Number of alpha electrons                  I               17
Number of beta electrons                   I               17
Number of basis functions                  I              106
Number of independant functions            I              106
Number of point charges in /Mol/           I                0
Number of translation vectors              I                0
Number of symbols in /Mol/                 I                0
Info1-9                                    I   N=           9
          25          25        1001           0           0         100
           6          18        -501
Num ILSW                                   I              100
ILSW                                       I   N=         100
           0           0           0           0           2           0
           0           0           3           0         402      200000
           5           0           0           0           0           0
           0      800000           1           0           1           0
           1           0           0           0     1000000           0
           0           0           0           0          -1           0
           0           0           0           0           0           0
           0           0           0           1           0           0
           0           0           1      720000      810000           0
           0           0           0           0           0           0
           0           0           0           0           0           0
           0           0           0           0           0           0
           0           0           0           0           0           0
           0           0           0           0           0           0
           0           0           0           0           0           0
           0           0           0           0           0           0
           0           0           0           0
Number of contracted shells                I               54
Highest angular momentum                   I                2
Largest degree of contraction              I                7
Number of primitive shells                 I              130
Pure/Cartesian d shells                    I                0
Pure/Cartesian f shells                    I                0
Virial Ratio                               R      2.009395570473313E+00
SCF Energy                                 R     -1.584496133937148E+02
Total Energy                               R     -1.584496133937148E+02
RMS Force                                  R      1.457842027151946E-07
RMS Density                                R      9.042744249245629E-10
Atomic numbers                             I   N=          14
           6           6           6           6           1           1
           1           1           1           1           1           1
           1           1
Nuclear charges                            R   N=          14
  6.00000000E+00  6.00000000E+00  6.00000000E+00  6.00000000E+00  1.00000000E+00
  1.00000000E+00  1.00000000E+00  1.00000000E+00  1.00000000E+00  1.00000000E+00
  1.00000000E+00  1.00000000E+00  1.00000000E+00  1.00000000E+00
Current cartesian coordinates              R   N=          42
 -9.23149262E-06  2.78265045E+00 -1.22417048E+00 -9.23149262E-06  1.47438387E+00
  1.36201976E+00  9.23149262E-06 -1.47438387E+00  1.36201976E+00  9.23149262E-06
 -2.78265045E+00 -1.22417048E+00  1.65716162E+00  2.15089735E+00  2.43291582E+00
 -1.65719576E+00  2.15088035E+00  2.43290134E+00  1.65719576E+00 -2.15088035E+00
  2.43290134E+00 -1.65716162E+00 -2.15089735E+00  2.43291582E+00  2.90081403E-05
 -4.85210336E+00 -9.85512753E-01 -1.67922721E+00 -2.29063240E+00 -2.35369432E+00
  1.67922936E+00 -2.29060183E+00 -2.35370574E+00 -2.90081403E-05  4.85210336E+00
 -9.85512753E-01  1.67922721E+00  2.29063240E+00 -2.35369432E+00 -1.67922936E+00
  2.29060183E+00 -2.35370574E+00
Atom Types                                 C   N=          14
                                                            
                                                            
                                                
Int Atom Types                             I   N=          14
           0           0           0           0           0           0
           0           0           0           0           0           0
           0           0
Force Field                                I                0
MM charges                                 R   N=          14
  0.00000000E+00  0.00000000E+00  0.00000000E+00  0.00000000E+00  0.00000000E+00
  0.00000000E+00  0.00000000E+00  0.00000000E+00  0.00000000E+00  0.00000000E+00
  0.00000000E+00  0.00000000E+00  0.00000000E+00  0.00000000E+00
Integer atomic weights                     I   N=          14
          12          12          12          12           1           1
           1           1           1           1           1           1
           1           1
Real atomic weights                        R   N=          14
  1.20000000E+01  1.20000000E+01  1.20000000E+01  1.20000000E+01  1.00782504E+00
  1.00782504E+00  1.00782504E+00  1.00782504E+00  1.00782504E+00  1.00782504E+00
  1.00782504E+00  1.00782504E+00  1.00782504E+00  1.00782504E+00
Atom residue info                          I   N=          14
           0           0           0           0           0           0
           0           0           0           0           0           0
           0           0
Atom fragment info                         I   N=          14
           0           0           0           0           0           0
           0           0           0           0           0           0
           0           0
Atom residue num                           I   N=          14
           0           0           0           0           0           0
           0           0           0           0           0           0
           0           0
Nuclear spins                              I   N=          14
           0           0           0           0           1           1
           1           1           1           1           1           1
           1           1
Nuclear ZEff                               R   N=          14
 -3.60000000E+00 -3.60000000E+00 -3.60000000E+00 -3.60000000E+00 -1.00000000E+00
 -1.00000000E+00 -1.00000000E+00 -1.00000000E+00 -1.00000000E+00 -1.00000000E+00
 -1.00000000E+00 -1.00000000E+00 -1.00000000E+00 -1.00000000E+00
Nuclear QMom                               R   N=          14
  0.00000000E+00  0.00000000E+00  0.00000000E+00  0.00000000E+00  0.00000000E+00
  0.00000000E+00  0.00000000E+00  0.00000000E+00  0.00000000E+00  0.00000000E+00
  0.00000000E+00  0.00000000E+00  0.00000000E+00  0.00000000E+00
Nuclear GFac                               R   N=          14
  0.00000000E+00  0.00000000E+00  0.00000000E+00  0.00000000E+00  2.79284600E+00
  2.79284600E+00  2.79284600E+00  2.79284600E+00  2.79284600E+00  2.79284600E+00
  2.79284600E+00  2.79284600E+00  2.79284600E+00  2.79284600E+00
MicOpt                                     I   N=          14
          -1          -1          -1          -1          -1          -1
          -1          -1          -1          -1          -1          -1
          -1          -1
Constraint Structure                       R   N=          42
 -9.23149262E-06  2.78265045E+00 -1.22417048E+00 -9.23149262E-06  1.47438387E+00
  1.36201976E+00  9.23149262E-06 -1.47438387E+00  1.36201976E+00  9.23149262E-06
 -2.78265045E+00 -1.22417048E+00  1.65716162E+00  2.15089735E+00  2.43291582E+00
 -1.65719576E+00  2.15088035E+00  2.43290134E+00  1.65719576E+00 -2.15088035E+00
  2.43290134E+00 -1.65716162E+00 -2.15089735E+00  2.43291582E+00  2.90081403E-05
 -4.85210336E+00 -9.85512753E-01 -1.67922721E+00 -2.29063240E+00 -2.35369432E+00
  1.67922936E+00 -2.29060183E+00 -2.35370574E+00 -2.90081403E-05  4.85210336E+00
 -9.85512753E-01  1.67922721E+00  2.29063240E+00 -2.35369432E+00 -1.67922936E+00
  2.29060183E+00 -2.35370574E+00
ONIOM Charges                              I   N=          16
           0           0           0           0           0           0
           0           0           0           0           0           0
           0           0           0           0
ONIOM Multiplicities                       I   N=          16
           1           0           0           0           0           0
           0           0           0           0           0           0
           0           0           0           0
Atom Layers                                I   N=          14
           0           0           0           0           0           0
           0           0           0           0           0           0
           0           0
Atom Modifiers                             I   N=          14
           0           0           0           0           0           0
           0           0           0           0           0           0
           0           0
Atom Modified Types                        C   N=          14
                                                            
                                                            
                                                
Int Atom Modified Types                    I   N=          14
           0           0           0           0           0           0
           0           0           0           0           0           0
           0           0
Link Atoms                                 I   N=          14
           0           0           0           0           0           0
           0           0           0           0           0           0
           0           0
Atom Modified MM Charges                   R   N=          14
  0.00000000E+00  0.00000000E+00  0.00000000E+00  0.00000000E+00  0.00000000E+00
  0.00000000E+00  0.00000000E+00  0.00000000E+00  0.00000000E+00  0.00000000E+00
  0.00000000E+00  0.00000000E+00  0.00000000E+00  0.00000000E+00
Link Distances                             R   N=          56
  0.00000000E+00  0.00000000E+00  0.00000000E+00  0.00000000E+00  0.00000000E+00
  0.00000000E+00  0.00000000E+00  0.00000000E+00  0.00000000E+00  0.00000000E+00
  0.00000000E+00  0.00000000E+00  0.00000000E+00  0.00000000E+00  0.00000000E+00
  0.00000000E+00  0.00000000E+00  0.00000000E+00  0.00000000E+00  0.00000000E+00
  0.00000000E+00  0.00000000E+00  0.00000000E+00  0.00000000E+00  0.00000000E+00
  0.00000000E+00  0.00000000E+00  0.00000000E+00  0.00000000E+00  0.00000000E+00
  0.00000000E+00  0.00000000E+00  0.00000000E+00  0.00000000E+00  0.00000000E+00
  0.00000000E+00  0.00000000E+00  0.00000000E+00  0.00000000E+00  0.00000000E+00
  0.00000000E+00  0.00000000E+00  0.00000000E+00  0.00000000E+00  0.00000000E+00
  0.00000000E+00  0.00000000E+00  0.00000000E+00  0.00000000E+00  0.00000000E+00
  0.00000000E+00  0.00000000E+00  0.00000000E+00  0.00000000E+00  0.00000000E+00
  0.00000000E+00
MxBond                                     I                4
NBond                                      I   N=          14
           4           4           4           4           1           1
           1           1           1           1           1           1
           1           1
IBond                                      I   N=          56
           2          12          13          14           1           3
           5           6           2           4           7           8
           3           9          10          11           2           0
           0           0           2           0           0           0
           3           0           0           0           3           0
           0           0           4           0           0           0
           4           0           0           0           4           0
           0           0           1           0           0           0
           1           0           0           0           1           0
           0           0
RBond                                      R   N=          56
  1.00000000E+00  1.00000000E+00  1.00000000E+00  1.00000000E+00  1.00000000E+00
  1.00000000E+00  1.00000000E+00  1.00000000E+00  1.00000000E+00  1.00000000E+00
  1.00000000E+00  1.00000000E+00  1.00000000E+00  1.00000000E+00  1.00000000E+00
  1.00000000E+00  1.00000000E+00  0.00000000E+00  0.00000000E+00  0.00000000E+00
  1.00000000E+00  0.00000000E+00  0.00000000E+00  0.00000000E+00  1.00000000E+00
  0.00000000E+00  0.00000000E+00  0.00000000E+00  1.00000000E+00  0.00000000E+00
  0.00000000E+00  0.00000000E+00  1.00000000E+00  0.00000000E+00  0.00000000E+00
  0.00000000E+00  1.00000000E+00  0.00000000E+00  0.00000000E+00  0.00000000E+00
  1.00000000E+00  0.00000000E+00  0.00000000E+00  0.00000000E+00  1.00000000E+00
  0.00000000E+00  0.00000000E+00  0.00000000E+00  1.00000000E+00  0.00000000E+00
  0.00000000E+00  0.00000000E+00  1.00000000E+00  0.00000000E+00  0.00000000E+00
  0.00000000E+00
Shell types                                I   N=          54
           0           0           0           1           1          -2
           0           0           0           1           1          -2
           0           0           0           1           1          -2
           0           0           0           1           1          -2
           0           0           1           0           0           1
           0           0           1           0           0           1
           0           0           1           0           0           1
           0           0           1           0           0           1
           0           0           1           0           0           1
Number of primitives per shell             I   N=          54
           7           7           1           3           1           1
           7           7           1           3           1           1
           7           7           1           3           1           1
           7           7           1           3           1           1
           3           1           1           3           1           1
           3           1           1           3           1           1
           3           1           1           3           1           1
           3           1           1           3           1           1
           3           1           1           3           1           1
Shell to atom map                          I   N=          54
           1           1           1           1           1           1
           2           2           2           2           2           2
           3           3           3           3           3           3
           4           4           4           4           4           4
           5           5           5           6           6           6
           7           7           7           8           8           8
           9           9           9          10          10          10
          11          11          11          12          12          12
          13          13          13          14          14          14
Primitive exponents                        R   N=         130
  6.66500000E+03  1.00000000E+03  2.28000000E+02  6.47100000E+01  2.10600000E+01
  7.49500000E+00  2.79700000E+00  6.66500000E+03  1.00000000E+03  6.47100000E+01
  2.10600000E+01  7.49500000E+00  2.79700000E+00  5.21500000E-01  1.59600000E-01
  9.43900000E+00  2.00200000E+00  5.45600000E-01  1.51700000E-01  5.50000000E-01
  6.66500000E+03  1.00000000E+03  2.28000000E+02  6.47100000E+01  2.10600000E+01
  7.49500000E+00  2.79700000E+00  6.66500000E+03  1.00000000E+03  6.47100000E+01
  2.10600000E+01  7.49500000E+00  2.79700000E+00  5.21500000E-01  1.59600000E-01
  9.43900000E+00  2.00200000E+00  5.45600000E-01  1.51700000E-01  5.50000000E-01
  6.66500000E+03  1.00000000E+03  2.28000000E+02  6.47100000E+01  2.10600000E+01
  7.49500000E+00  2.79700000E+00  6.66500000E+03  1.00000000E+03  6.47100000E+01
  2.10600000E+01  7.49500000E+00  2.79700000E+00  5.21500000E-01  1.59600000E-01
  9.43900000E+00  2.00200000E+00  5.45600000E-01  1.51700000E-01  5.50000000E-01
  6.66500000E+03  1.00000000E+03  2.28000000E+02  6.47100000E+01  2.10600000E+01
  7.49500000E+00  2.79700000E+00  6.66500000E+03  1.00000000E+03  6.47100000E+01
  2.10600000E+01  7.49500000E+00  2.79700000E+00  5.21500000E-01  1.59600000E-01
  9.43900000E+00  2.00200000E+00  5.45600000E-01  1.51700000E-01  5.50000000E-01
  1.30100000E+01  1.96200000E+00  4.44600000E-01  1.22000000E-01  7.27000000E-01
  1.30100000E+01  1.96200000E+00  4.44600000E-01  1.22000000E-01  7.27000000E-01
  1.30100000E+01  1.96200000E+00  4.44600000E-01  1.22000000E-01  7.27000000E-01
  1.30100000E+01  1.96200000E+00  4.44600000E-01  1.22000000E-01  7.27000000E-01
  1.30100000E+01  1.96200000E+00  4.44600000E-01  1.22000000E-01  7.27000000E-01
  1.30100000E+01  1.96200000E+00  4.44600000E-01  1.22000000E-01  7.27000000E-01
  1.30100000E+01  1.96200000E+00  4.44600000E-01  1.22000000E-01  7.27000000E-01
  1.30100000E+01  1.96200000E+00  4.44600000E-01  1.22000000E-01  7.27000000E-01
  1.30100000E+01  1.96200000E+00  4.44600000E-01  1.22000000E-01  7.27000000E-01
  1.30100000E+01  1.96200000E+00  4.44600000E-01  1.22000000E-01  7.27000000E-01
Contraction coefficients                   R   N=         130
  6.93516317E-04  5.34150243E-03  2.71366714E-02  1.01992385E-01  2.75508636E-01
  4.51086433E-01  2.87565745E-01  6.28313219E-07 -5.48480000E-05 -3.63137064E-03
 -1.17983699E-02 -1.10909885E-01 -1.34742247E-01  1.10175849E+00  1.00000000E+00
  5.69792516E-02  3.13207212E-01  7.60376742E-01  1.00000000E+00  1.00000000E+00
  6.93516317E-04  5.34150243E-03  2.71366714E-02  1.01992385E-01  2.75508636E-01
  4.51086433E-01  2.87565745E-01  6.28313219E-07 -5.48480000E-05 -3.63137064E-03
 -1.17983699E-02 -1.10909885E-01 -1.34742247E-01  1.10175849E+00  1.00000000E+00
  5.69792516E-02  3.13207212E-01  7.60376742E-01  1.00000000E+00  1.00000000E+00
  6.93516317E-04  5.34150243E-03  2.71366714E-02  1.01992385E-01  2.75508636E-01
  4.51086433E-01  2.87565745E-01  6.28313219E-07 -5.48480000E-05 -3.63137064E-03
 -1.17983699E-02 -1.10909885E-01 -1.34742247E-01  1.10175849E+00  1.00000000E+00
  5.69792516E-02  3.13207212E-01  7.60376742E-01  1.00000000E+00  1.00000000E+00
  6.93516317E-04  5.34150243E-03  2.71366714E-02  1.01992385E-01  2.75508636E-01
  4.51086433E-01  2.87565745E-01  6.28313219E-07 -5.48480000E-05 -3.63137064E-03
 -1.17983699E-02 -1.10909885E-01 -1.34742247E-01  1.10175849E+00  1.00000000E+00
  5.69792516E-02  3.13207212E-01  7.60376742E-01  1.00000000E+00  1.00000000E+00
  3.34987264E-02  2.34800801E-01  8.13682958E-01  1.00000000E+00  1.00000000E+00
  3.34987264E-02  2.34800801E-01  8.13682958E-01  1.00000000E+00  1.00000000E+00
  3.34987264E-02  2.34800801E-01  8.13682958E-01  1.00000000E+00  1.00000000E+00
  3.34987264E-02  2.34800801E-01  8.13682958E-01  1.00000000E+00  1.00000000E+00
  3.34987264E-02  2.34800801E-01  8.13682958E-01  1.00000000E+00  1.00000000E+00
  3.34987264E-02  2.34800801E-01  8.13682958E-01  1.00000000E+00  1.00000000E+00
  3.34987264E-02  2.34800801E-01  8.13682958E-01  1.00000000E+00  1.00000000E+00
  3.34987264E-02  2.34800801E-01  8.13682958E-01  1.00000000E+00  1.00000000E+00
  3.34987264E-02  2.34800801E-01  8.13682958E-01  1.00000000E+00  1.00000000E+00
  3.34987264E-02  2.34800801E-01  8.13682958E-01  1.00000000E+00  1.00000000E+00
Coordinates of each shell                  R   N=         162
 -9.23149262E-06  2.78265045E+00 -1.22417048E+00 -9.23149262E-06  2.78265045E+00
 -1.22417048E+00 -9.23149262E-06  2.78265045E+00 -1.22417048E+00 -9.23149262E-06
  2.78265045E+00 -1.22417048E+00 -9.23149262E-06  2.78265045E+00 -1.22417048E+00
 -9.23149262E-06  2.78265045E+00 -1.22417048E+00 -9.23149262E-06  1.47438387E+00
  1.36201976E+00 -9.23149262E-06  1.47438387E+00  1.36201976E+00 -9.23149262E-06
  1.47438387E+00  1.36201976E+00 -9.23149262E-06  1.47438387E+00  1.36201976E+00
 -9.23149262E-06  1.47438387E+00  1.36201976E+00 -9.23149262E-06  1.47438387E+00
  1.36201976E+00  9.23149262E-06 -1.47438387E+00  1.36201976E+00  9.23149262E-06
 -1.47438387E+00  1.36201976E+00  9.23149262E-06 -1.47438387E+00  1.36201976E+00
  9.23149262E-06 -1.47438387E+00  1.36201976E+00  9.23149262E-06 -1.47438387E+00
  1.36201976E+00  9.23149262E-06 -1.47438387E+00  1.36201976E+00  9.23149262E-06
 -2.78265045E+00 -1.22417048E+00  9.23149262E-06 -2.78265045E+00 -1.22417048E+00
  9.23149262E-06 -2.78265045E+00 -1.22417048E+00  9.23149262E-06 -2.78265045E+00
 -1.22417048E+00  9.23149262E-06 -2.78265045E+00 -1.22417048E+00  9.23149262E-06
 -2.78265045E+00 -1.22417048E+00  1.65716162E+00  2.15089735E+00  2.43291582E+00
  1.65716162E+00  2.15089735E+00  2.43291582E+00  1.65716162E+00  2.15089735E+00
  2.43291582E+00 -1.65719576E+00  2.15088035E+00  2.43290134E+00 -1.65719576E+00
  2.15088035E+00  2.43290134E+00 -1.65719576E+00  2.15088035E+00  2.43290134E+00
  1.65719576E+00 -2.15088035E+00  2.43290134E+00  1.65719576E+00 -2.15088035E+00
  2.43290134E+00  1.65719576E+00 -2.15088035E+00  2.43290134E+00 -1.65716162E+00
 -2.15089735E+00  2.43291582E+00 -1.65716162E+00 -2.15089735E+00  2.43291582E+00
 -1.65716162E+00 -2.15089735E+00  2.43291582E+00  2.90081403E-05 -4.85210336E+00
 -9.85512753E-01  2.90081403E-05 -4.85210336E+00 -9.85512753E-01  2.90081403E-05
 -4.85210336E+00 -9.85512753E-01 -1.67922721E+00 -2.29063240E+00 -2.35369432E+00
 -1.67922721E+00 -2.29063240E+00 -2.35369432E+00 -1.67922721E+00 -2.29063240E+00
 -2.35369432E+00  1.67922936E+00 -2.29060183E+00 -2.35370574E+00  1.67922936E+00
 -2.29060183E+00 -2.35370574E+00  1.67922936E+00 -2.29060183E+00 -2.35370574E+00
 -2.90081403E-05  4.85210336E+00 -9.85512753E-01 -2.90081403E-05  4.85210336E+00
 -9.85512753E-01 -2.90081403E-05  4.85210336E+00 -9.85512753E-01  1.67922721E+00
  2.29063240E+00 -2.35369432E+00  1.67922721E+00  2.29063240E+00 -2.35369432E+00
  1.67922721E+00  2.29063240E+00 -2.35369432E+00 -1.67922936E+00  2.29060183E+00
 -2.35370574E+00 -1.67922936E+00  2.29060183E+00 -2.35370574E+00 -1.67922936E+00
  2.29060183E+00 -2.35370574E+00
Alpha Orbital Energies                     R   N=         106
 -1.01803425E+01 -1.01802116E+01 -1.01751853E+01 -1.01751576E+01 -7.85957990E-01
 -7.15886950E-01 -6.40535135E-01 -5.56299435E-01 -4.60026455E-01 -4.44383541E-01
 -4.03458572E-01 -3.88699274E-01 -3.72774530E-01 -3.60944524E-01 -3.26772379E-01
 -3.20991661E-01 -3.04657330E-01  5.26889839E-02  8.98090268E-02  9.25453096E-02
  1.04621353E-01  1.22356509E-01  1.30319742E-01  1.49034017E-01  1.62183350E-01
  1.68244726E-01  1.92094254E-01  2.18025257E-01  2.39705305E-01  3.01395760E-01
  3.99658006E-01  4.01207699E-01  4.26929761E-01  4.38609801E-01  4.78091922E-01
  5.09944513E-01  5.10403705E-01  5.83189988E-01  5.93966841E-01  6.02012598E-01
  6.36307560E-01  6.47772270E-01  6.52760262E-01  6.53043379E-01  6.53374390E-01
  6.79188032E-01  6.80104987E-01  6.92240079E-01  7.14055660E-01  7.16274170E-01
  7.37597300E-01  8.27509936E-01  8.67190928E-01  8.69011057E-01  9.58720577E-01
  1.07315560E+00  1.20554019E+00  1.22426734E+00  1.23408601E+00  1.24034403E+00
  1.26216409E+00  1.26260238E+00  1.41573371E+00  1.44956178E+00  1.48925965E+00
  1.52419120E+00  1.52791472E+00  1.56390273E+00  1.61300078E+00  1.62227564E+00
  1.64374470E+00  1.65844086E+00  1.66904004E+00  1.68419186E+00  1.68624331E+00
  1.68927542E+00  1.70761467E+00  1.73374755E+00  1.74511700E+00  1.76366428E+00
  1.81015083E+00  1.81408459E+00  1.82979750E+00  1.88294877E+00  1.92026787E+00
  2.00076985E+00  2.05539880E+00  2.07991569E+00  2.09367641E+00  2.15673702E+00
  2.16461022E+00  2.18393444E+00  2.22043130E+00  2.25900799E+00  2.30176065E+00
  2.32222288E+00  2.40883765E+00  2.42119173E+00  2.43109972E+00  2.45756148E+00
  2.53331430E+00  2.55957523E+00  2.56957419E+00  2.59289309E+00  2.63304128E+00
  2.74418449E+00
Alpha MO coefficients                      R   N=       11236
  1.05585591E-02 -2.66297931E-04  3.95542202E-03 -1.47578722E-09  2.92126549E-04
 -3.31329034E-04  1.50947157E-09 -1.06742760E-03  1.73151777E-03 -5.41339376E-04
  4.70536412E-11  6.08026982E-04 -8.65477470E-05 -4.56839929E-09  7.04814651E-01
  2.15840127E-02 -1.18871750E-02 -7.04922019E-09  5.86234574E-04  6.40805325E-04
  2.33240326E-09 -7.20728197E-04  1.57841645E-03  1.76148914E-04  2.94355227E-09
  4.45509633E-04  1.30591503E-03  1.14184602E-08  7.04814651E-01  2.15840127E-02
 -1.18871750E-02  7.04922019E-09 -5.86234574E-04  6.40805325E-04 -2.33240326E-09
  7.20728197E-04  1.57841645E-03  1.76148914E-04 -2.94355227E-09 -4.45509633E-04
  1.30591503E-03  1.14184602E-08  1.05585591E-02 -2.66297931E-04  3.95542202E-03
  1.47578722E-09 -2.92126549E-04 -3.31329034E-04 -1.50947157E-09  1.06742760E-03
  1.73151777E-03 -5.41339376E-04 -4.70536412E-11 -6.08026982E-04 -8.65477470E-05
 -4.56839929E-09 -1.21937082E-03  1.60864587E-03  1.21334259E-03  4.23388096E-04
  6.84418905E-04 -1.21937178E-03  1.60865478E-03 -1.21335240E-03  4.23374543E-04
  6.84408863E-04 -1.21937178E-03  1.60865478E-03  1.21335240E-03 -4.23374543E-04
  6.84408863E-04 -1.21937082E-03  1.60864587E-03 -1.21334259E-03 -4.23388096E-04
  6.84418905E-04 -4.75774479E-04  1.38600087E-04  1.35855251E-09 -1.71175626E-04
 -5.76347327E-05 -3.51848572E-04  2.43864042E-04 -1.86044255E-05 -7.01977449E-05
  1.05311215E-05 -3.51847637E-04  2.43856628E-04  1.86079161E-05 -7.01964007E-05
  1.05325137E-05 -4.75774479E-04  1.38600087E-04 -1.35855251E-09  1.71175626E-04
 -5.76347327E-05 -3.51848572E-04  2.43864042E-04  1.86044255E-05  7.01977449E-05
  1.05311215E-05 -3.51847637E-04  2.43856628E-04 -1.86079161E-05  7.01964007E-05
  1.05325137E-05  1.28079271E-02  1.84188608E-04  5.37035645E-03  1.44826039E-09
 -5.01212546E-05 -7.45427120E-05  7.24807572E-10 -1.29012737E-03  2.08300879E-03
 -5.53630789E-04  1.57455923E-09  3.50248221E-04  2.61845796E-04  9.70373993E-10
  7.04859922E-01  2.27158031E-02 -2.23188215E-02 -4.40321513E-09  2.57008170E-04
  4.26674747E-04 -2.77694959E-08  3.42522251E-03  3.58516355E-03 -4.58655059E-04
  2.35565183E-09  3.20237892E-04  7.85264221E-05 -2.24615726E-09 -7.04859922E-01
 -2.27158031E-02  2.23188215E-02 -4.40321513E-09  2.57008170E-04 -4.26674747E-04
 -2.77694959E-08  3.42522251E-03 -3.58516355E-03  4.58655059E-04  2.35565183E-09
  3.20237892E-04 -7.85264221E-05  2.24615726E-09 -1.28079271E-02 -1.84188608E-04
 -5.37035645E-03  1.44826039E-09 -5.01212546E-05  7.45427120E-05  7.24807572E-10
 -1.29012737E-03 -2.08300879E-03  5.53630789E-04  1.57455923E-09  3.50248221E-04
 -2.61845796E-04 -9.70373993E-10 -3.89002739E-04  1.12624857E-03  1.17672572E-03
  3.68576313E-04  5.28293359E-04 -3.89001878E-04  1.12624873E-03 -1.17673527E-03
  3.68562617E-04  5.28284716E-04  3.89001878E-04 -1.12624873E-03 -1.17673527E-03
  3.68562617E-04 -5.28284716E-04  3.89002739E-04 -1.12624857E-03  1.17672572E-03
  3.68576313E-04 -5.28293359E-04  3.56843831E-04  3.02310955E-04  4.93966400E-11
  1.16117976E-04  5.54602534E-05  4.90299354E-04 -4.96628940E-04  3.56995489E-05
 -9.64704663E-05 -3.16563836E-06  4.90299212E-04 -4.96634724E-04 -3.56972349E-05
 -9.64736262E-05 -3.16841538E-06 -3.56843831E-04 -3.02310955E-04  4.93966400E-11
  1.16117976E-04 -5.54602534E-05 -4.90299354E-04  4.96628940E-04  3.56995489E-05
 -9.64704663E-05  3.16563836E-06 -4.90299212E-04  4.96634724E-04 -3.56972349E-05
 -9.64736262E-05  3.16841538E-06  7.04815178E-01  2.26775626E-02 -1.59866949E-02
 -5.80090064E-12  4.45122323E-05 -5.33532170E-04 -2.14328729E-08  3.68549616E-03
 -1.72724142E-03 -3.58514826E-04 -4.57466833E-09  4.07425798E-04  4.49406910E-05
 -8.92048680E-10 -1.28194236E-02 -5.96585515E-04  5.83239639E-03 -6.82968427E-10
 -1.63859158E-04  1.57837267E-04  1.33844852E-08  8.52693489E-04 -3.02390072E-03
 -4.87896622E-04 -3.45824675E-09  7.13377384E-04  3.88124044E-04  4.42533356E-09
  1.28194236E-02  5.96585515E-04 -5.83239639E-03 -6.82968427E-10 -1.63859158E-04
 -1.57837267E-04  1.33844852E-08  8.52693489E-04  3.02390072E-03  4.87896622E-04
 -3.45824675E-09  7.13377384E-04 -3.88124044E-04 -4.42533356E-09 -7.04815178E-01
 -2.26775626E-02  1.59866949E-02 -5.80090064E-12  4.45122323E-05  5.33532170E-04
 -2.14328729E-08  3.68549616E-03  1.72724142E-03  3.58514826E-04 -4.57466833E-09
  4.07425798E-04 -4.49406910E-05  8.92048680E-10 -4.89610501E-04  4.23814594E-04
  4.13983212E-05  9.18041296E-06  5.40898102E-05 -4.89609241E-04  4.23831517E-04
 -4.14000623E-05  9.18017182E-06  5.40847838E-05  4.89609241E-04 -4.23831517E-04
 -4.14000623E-05  9.18017182E-06 -5.40847838E-05  4.89610501E-04 -4.23814594E-04
  4.13983212E-05  9.18041296E-06 -5.40898102E-05  1.15909372E-03 -8.36377132E-05
 -1.52975381E-08  1.45024196E-03 -2.68667895E-04  3.67689563E-04 -2.05397091E-03
  1.03193292E-03 -5.77537260E-04  6.30316711E-04  3.67682405E-04 -2.05395462E-03
 -1.03192000E-03 -5.77548168E-04  6.30324915E-04 -1.15909372E-03  8.36377132E-05
 -1.52975381E-08  1.45024196E-03  2.68667895E-04 -3.67689563E-04  2.05397091E-03
  1.03193292E-03 -5.77537260E-04 -6.30316711E-04 -3.67682405E-04  2.05395462E-03
 -1.03192000E-03 -5.77548168E-04 -6.30324915E-04  7.04703649E-01  2.14028488E-02
 -1.13968494E-02 -1.31951357E-09  4.06177505E-04 -5.60925955E-04  1.29107968E-08
 -7.98772595E-05 -1.29501046E-03 -3.62516419E-04 -2.79909991E-09  4.17163320E-04
  8.68741656E-05 -3.18116187E-10 -1.05713481E-02 -6.88936416E-04  2.83989217E-03
  1.88389579E-10 -1.17316029E-05  3.27610987E-04 -3.36926617E-09  5.41189052E-04