Butano diedro spostato da usare per armonia                             
Freq      RB3LYP                                                      CC-pVDZ             
Number of atoms                            I               14
Charge                                     I                0
Multiplicity                               I                1
Number of electrons                        I               34
Number of alpha electrons                  I               17
Number of beta electrons                   I               17
Number of basis functions                  I              106
Number of independant functions            I              106
Number of point charges in /Mol/           I                0
Number of translation vectors              I                0
Number of symbols in /Mol/                 I                0
Info1-9                                    I   N=           9
          25          25        1001           0           0         100
           6          18        -501
Num ILSW                                   I              100
ILSW                                       I   N=         100
           0           0           0           0           2           0
           0           0           3           0         402      200000
           5           0           0           0           0           0
           0      800000           1           0           1           0
           1           0           0           0     1000000           0
           0           0           0           0          -1           0
           0           0           0           0           0           0
           0           0           0           1           0           0
           0           0           1      720000      810000           0
           0           0           0           0           0           0
           0           0           0           0           0           0
           0           0           0           0           0           0
           0           0           0           0           0           0
           0           0           0           0           0           0
           0           0           0           0           0           0
           0           0           0           0           0           0
           0           0           0           0
Number of contracted shells                I               54
Highest angular momentum                   I                2
Largest degree of contraction              I                7
Number of primitive shells                 I              130
Pure/Cartesian d shells                    I                0
Pure/Cartesian f shells                    I                0
Virial Ratio                               R      2.009421538577993E+00
SCF Energy                                 R     -1.584572641842542E+02
Total Energy                               R     -1.584572641842542E+02
RMS Force                                  R      3.404064860501522E-04
RMS Density                                R      2.897223675179716E-09
Atomic numbers                             I   N=          14
           6           6           6           6           1           1
           1           1           1           1           1           1
           1           1
Nuclear charges                            R   N=          14
  6.00000000E+00  6.00000000E+00  6.00000000E+00  6.00000000E+00  1.00000000E+00
  1.00000000E+00  1.00000000E+00  1.00000000E+00  1.00000000E+00  1.00000000E+00
  1.00000000E+00  1.00000000E+00  1.00000000E+00  1.00000000E+00
Current cartesian coordinates              R   N=          42
  4.41917727E-01 -2.93693672E+00 -1.07516400E+00 -4.41917727E-01 -1.38333552E+00
  1.20193406E+00  4.41917727E-01  1.38333552E+00  1.20193406E+00 -4.41917727E-01
  2.93693672E+00 -1.07516400E+00 -2.53049992E+00 -1.43057206E+00  1.29468843E+00
  2.27793140E-01 -2.29592278E+00  2.95578925E+00 -2.27793140E-01  2.29592278E+00
  2.95578925E+00  2.53049992E+00  1.43057206E+00  1.29468843E+00  1.53682520E-01
  4.92542509E+00 -9.02871257E-01  3.36631281E-01  2.21098423E+00 -2.86518886E+00
 -2.52175839E+00  2.91725733E+00 -1.24303793E+00 -1.53682520E-01 -4.92542509E+00
 -9.02871257E-01 -3.36631281E-01 -2.21098423E+00 -2.86518886E+00  2.52175839E+00
 -2.91725733E+00 -1.24303793E+00
Atom Types                                 C   N=          14
                                                            
                                                            
                                                
Int Atom Types                             I   N=          14
           0           0           0           0           0           0
           0           0           0           0           0           0
           0           0
Force Field                                I                0
MM charges                                 R   N=          14
  0.00000000E+00  0.00000000E+00  0.00000000E+00  0.00000000E+00  0.00000000E+00
  0.00000000E+00  0.00000000E+00  0.00000000E+00  0.00000000E+00  0.00000000E+00
  0.00000000E+00  0.00000000E+00  0.00000000E+00  0.00000000E+00
Integer atomic weights                     I   N=          14
          12          12          12          12           1           1
           1           1           1           1           1           1
           1           1
Real atomic weights                        R   N=          14
  1.20000000E+01  1.20000000E+01  1.20000000E+01  1.20000000E+01  1.00782504E+00
  1.00782504E+00  1.00782504E+00  1.00782504E+00  1.00782504E+00  1.00782504E+00
  1.00782504E+00  1.00782504E+00  1.00782504E+00  1.00782504E+00
Atom residue info                          I   N=          14
           0           0           0           0           0           0
           0           0           0           0           0           0
           0           0
Atom fragment info                         I   N=          14
           0           0           0           0           0           0
           0           0           0           0           0           0
           0           0
Atom residue num                           I   N=          14
           0           0           0           0           0           0
           0           0           0           0           0           0
           0           0
Nuclear spins                              I   N=          14
           0           0           0           0           1           1
           1           1           1           1           1           1
           1           1
Nuclear ZEff                               R   N=          14
 -3.60000000E+00 -3.60000000E+00 -3.60000000E+00 -3.60000000E+00 -1.00000000E+00
 -1.00000000E+00 -1.00000000E+00 -1.00000000E+00 -1.00000000E+00 -1.00000000E+00
 -1.00000000E+00 -1.00000000E+00 -1.00000000E+00 -1.00000000E+00
Nuclear QMom                               R   N=          14
  0.00000000E+00  0.00000000E+00  0.00000000E+00  0.00000000E+00  0.00000000E+00
  0.00000000E+00  0.00000000E+00  0.00000000E+00  0.00000000E+00  0.00000000E+00
  0.00000000E+00  0.00000000E+00  0.00000000E+00  0.00000000E+00
Nuclear GFac                               R   N=          14
  0.00000000E+00  0.00000000E+00  0.00000000E+00  0.00000000E+00  2.79284600E+00
  2.79284600E+00  2.79284600E+00  2.79284600E+00  2.79284600E+00  2.79284600E+00
  2.79284600E+00  2.79284600E+00  2.79284600E+00  2.79284600E+00
MicOpt                                     I   N=          14
          -1          -1          -1          -1          -1          -1
          -1          -1          -1          -1          -1          -1
          -1          -1
Constraint Structure                       R   N=          42
  4.41917727E-01 -2.93693672E+00 -1.07516400E+00 -4.41917727E-01 -1.38333552E+00
  1.20193406E+00  4.41917727E-01  1.38333552E+00  1.20193406E+00 -4.41917727E-01
  2.93693672E+00 -1.07516400E+00 -2.53049992E+00 -1.43057206E+00  1.29468843E+00
  2.27793140E-01 -2.29592278E+00  2.95578925E+00 -2.27793140E-01  2.29592278E+00
  2.95578925E+00  2.53049992E+00  1.43057206E+00  1.29468843E+00  1.53682520E-01
  4.92542509E+00 -9.02871257E-01  3.36631281E-01  2.21098423E+00 -2.86518886E+00
 -2.52175839E+00  2.91725733E+00 -1.24303793E+00 -1.53682520E-01 -4.92542509E+00
 -9.02871257E-01 -3.36631281E-01 -2.21098423E+00 -2.86518886E+00  2.52175839E+00
 -2.91725733E+00 -1.24303793E+00
ONIOM Charges                              I   N=          16
           0           0           0           0           0           0
           0           0           0           0           0           0
           0           0           0           0
ONIOM Multiplicities                       I   N=          16
           1           0           0           0           0           0
           0           0           0           0           0           0
           0           0           0           0
Atom Layers                                I   N=          14
           0           0           0           0           0           0
           0           0           0           0           0           0
           0           0
Atom Modifiers                             I   N=          14
           0           0           0           0           0           0
           0           0           0           0           0           0
           0           0
Atom Modified Types                        C   N=          14
                                                            
                                                            
                                                
Int Atom Modified Types                    I   N=          14
           0           0           0           0           0           0
           0           0           0           0           0           0
           0           0
Link Atoms                                 I   N=          14
           0           0           0           0           0           0
           0           0           0           0           0           0
           0           0
Atom Modified MM Charges                   R   N=          14
  0.00000000E+00  0.00000000E+00  0.00000000E+00  0.00000000E+00  0.00000000E+00
  0.00000000E+00  0.00000000E+00  0.00000000E+00  0.00000000E+00  0.00000000E+00
  0.00000000E+00  0.00000000E+00  0.00000000E+00  0.00000000E+00
Link Distances                             R   N=          56
  0.00000000E+00  0.00000000E+00  0.00000000E+00  0.00000000E+00  0.00000000E+00
  0.00000000E+00  0.00000000E+00  0.00000000E+00  0.00000000E+00  0.00000000E+00
  0.00000000E+00  0.00000000E+00  0.00000000E+00  0.00000000E+00  0.00000000E+00
  0.00000000E+00  0.00000000E+00  0.00000000E+00  0.00000000E+00  0.00000000E+00
  0.00000000E+00  0.00000000E+00  0.00000000E+00  0.00000000E+00  0.00000000E+00
  0.00000000E+00  0.00000000E+00  0.00000000E+00  0.00000000E+00  0.00000000E+00
  0.00000000E+00  0.00000000E+00  0.00000000E+00  0.00000000E+00  0.00000000E+00
  0.00000000E+00  0.00000000E+00  0.00000000E+00  0.00000000E+00  0.00000000E+00
  0.00000000E+00  0.00000000E+00  0.00000000E+00  0.00000000E+00  0.00000000E+00
  0.00000000E+00  0.00000000E+00  0.00000000E+00  0.00000000E+00  0.00000000E+00
  0.00000000E+00  0.00000000E+00  0.00000000E+00  0.00000000E+00  0.00000000E+00
  0.00000000E+00
MxBond                                     I                4
NBond                                      I   N=          14
           4           4           4           4           1           1
           1           1           1           1           1           1
           1           1
IBond                                      I   N=          56
           2          12          13          14           1           3
           5           6           2           4           7           8
           3           9          10          11           2           0
           0           0           2           0           0           0
           3           0           0           0           3           0
           0           0           4           0           0           0
           4           0           0           0           4           0
           0           0           1           0           0           0
           1           0           0           0           1           0
           0           0
RBond                                      R   N=          56
  1.00000000E+00  1.00000000E+00  1.00000000E+00  1.00000000E+00  1.00000000E+00
  1.00000000E+00  1.00000000E+00  1.00000000E+00  1.00000000E+00  1.00000000E+00
  1.00000000E+00  1.00000000E+00  1.00000000E+00  1.00000000E+00  1.00000000E+00
  1.00000000E+00  1.00000000E+00  0.00000000E+00  0.00000000E+00  0.00000000E+00
  1.00000000E+00  0.00000000E+00  0.00000000E+00  0.00000000E+00  1.00000000E+00
  0.00000000E+00  0.00000000E+00  0.00000000E+00  1.00000000E+00  0.00000000E+00
  0.00000000E+00  0.00000000E+00  1.00000000E+00  0.00000000E+00  0.00000000E+00
  0.00000000E+00  1.00000000E+00  0.00000000E+00  0.00000000E+00  0.00000000E+00
  1.00000000E+00  0.00000000E+00  0.00000000E+00  0.00000000E+00  1.00000000E+00
  0.00000000E+00  0.00000000E+00  0.00000000E+00  1.00000000E+00  0.00000000E+00
  0.00000000E+00  0.00000000E+00  1.00000000E+00  0.00000000E+00  0.00000000E+00
  0.00000000E+00
Shell types                                I   N=          54
           0           0           0           1           1          -2
           0           0           0           1           1          -2
           0           0           0           1           1          -2
           0           0           0           1           1          -2
           0           0           1           0           0           1
           0           0           1           0           0           1
           0           0           1           0           0           1
           0           0           1           0           0           1
           0           0           1           0           0           1
Number of primitives per shell             I   N=          54
           7           7           1           3           1           1
           7           7           1           3           1           1
           7           7           1           3           1           1
           7           7           1           3           1           1
           3           1           1           3           1           1
           3           1           1           3           1           1
           3           1           1           3           1           1
           3           1           1           3           1           1
           3           1           1           3           1           1
Shell to atom map                          I   N=          54
           1           1           1           1           1           1
           2           2           2           2           2           2
           3           3           3           3           3           3
           4           4           4           4           4           4
           5           5           5           6           6           6
           7           7           7           8           8           8
           9           9           9          10          10          10
          11          11          11          12          12          12
          13          13          13          14          14          14
Primitive exponents                        R   N=         130
  6.66500000E+03  1.00000000E+03  2.28000000E+02  6.47100000E+01  2.10600000E+01
  7.49500000E+00  2.79700000E+00  6.66500000E+03  1.00000000E+03  6.47100000E+01
  2.10600000E+01  7.49500000E+00  2.79700000E+00  5.21500000E-01  1.59600000E-01
  9.43900000E+00  2.00200000E+00  5.45600000E-01  1.51700000E-01  5.50000000E-01
  6.66500000E+03  1.00000000E+03  2.28000000E+02  6.47100000E+01  2.10600000E+01
  7.49500000E+00  2.79700000E+00  6.66500000E+03  1.00000000E+03  6.47100000E+01
  2.10600000E+01  7.49500000E+00  2.79700000E+00  5.21500000E-01  1.59600000E-01
  9.43900000E+00  2.00200000E+00  5.45600000E-01  1.51700000E-01  5.50000000E-01
  6.66500000E+03  1.00000000E+03  2.28000000E+02  6.47100000E+01  2.10600000E+01
  7.49500000E+00  2.79700000E+00  6.66500000E+03  1.00000000E+03  6.47100000E+01
  2.10600000E+01  7.49500000E+00  2.79700000E+00  5.21500000E-01  1.59600000E-01
  9.43900000E+00  2.00200000E+00  5.45600000E-01  1.51700000E-01  5.50000000E-01
  6.66500000E+03  1.00000000E+03  2.28000000E+02  6.47100000E+01  2.10600000E+01
  7.49500000E+00  2.79700000E+00  6.66500000E+03  1.00000000E+03  6.47100000E+01
  2.10600000E+01  7.49500000E+00  2.79700000E+00  5.21500000E-01  1.59600000E-01
  9.43900000E+00  2.00200000E+00  5.45600000E-01  1.51700000E-01  5.50000000E-01
  1.30100000E+01  1.96200000E+00  4.44600000E-01  1.22000000E-01  7.27000000E-01
  1.30100000E+01  1.96200000E+00  4.44600000E-01  1.22000000E-01  7.27000000E-01
  1.30100000E+01  1.96200000E+00  4.44600000E-01  1.22000000E-01  7.27000000E-01
  1.30100000E+01  1.96200000E+00  4.44600000E-01  1.22000000E-01  7.27000000E-01
  1.30100000E+01  1.96200000E+00  4.44600000E-01  1.22000000E-01  7.27000000E-01
  1.30100000E+01  1.96200000E+00  4.44600000E-01  1.22000000E-01  7.27000000E-01
  1.30100000E+01  1.96200000E+00  4.44600000E-01  1.22000000E-01  7.27000000E-01
  1.30100000E+01  1.96200000E+00  4.44600000E-01  1.22000000E-01  7.27000000E-01
  1.30100000E+01  1.96200000E+00  4.44600000E-01  1.22000000E-01  7.27000000E-01
  1.30100000E+01  1.96200000E+00  4.44600000E-01  1.22000000E-01  7.27000000E-01
Contraction coefficients                   R   N=         130
  6.93516317E-04  5.34150243E-03  2.71366714E-02  1.01992385E-01  2.75508636E-01
  4.51086433E-01  2.87565745E-01  6.28313219E-07 -5.48480000E-05 -3.63137064E-03
 -1.17983699E-02 -1.10909885E-01 -1.34742247E-01  1.10175849E+00  1.00000000E+00
  5.69792516E-02  3.13207212E-01  7.60376742E-01  1.00000000E+00  1.00000000E+00
  6.93516317E-04  5.34150243E-03  2.71366714E-02  1.01992385E-01  2.75508636E-01
  4.51086433E-01  2.87565745E-01  6.28313219E-07 -5.48480000E-05 -3.63137064E-03
 -1.17983699E-02 -1.10909885E-01 -1.34742247E-01  1.10175849E+00  1.00000000E+00
  5.69792516E-02  3.13207212E-01  7.60376742E-01  1.00000000E+00  1.00000000E+00
  6.93516317E-04  5.34150243E-03  2.71366714E-02  1.01992385E-01  2.75508636E-01
  4.51086433E-01  2.87565745E-01  6.28313219E-07 -5.48480000E-05 -3.63137064E-03
 -1.17983699E-02 -1.10909885E-01 -1.34742247E-01  1.10175849E+00  1.00000000E+00
  5.69792516E-02  3.13207212E-01  7.60376742E-01  1.00000000E+00  1.00000000E+00
  6.93516317E-04  5.34150243E-03  2.71366714E-02  1.01992385E-01  2.75508636E-01
  4.51086433E-01  2.87565745E-01  6.28313219E-07 -5.48480000E-05 -3.63137064E-03
 -1.17983699E-02 -1.10909885E-01 -1.34742247E-01  1.10175849E+00  1.00000000E+00
  5.69792516E-02  3.13207212E-01  7.60376742E-01  1.00000000E+00  1.00000000E+00
  3.34987264E-02  2.34800801E-01  8.13682958E-01  1.00000000E+00  1.00000000E+00
  3.34987264E-02  2.34800801E-01  8.13682958E-01  1.00000000E+00  1.00000000E+00
  3.34987264E-02  2.34800801E-01  8.13682958E-01  1.00000000E+00  1.00000000E+00
  3.34987264E-02  2.34800801E-01  8.13682958E-01  1.00000000E+00  1.00000000E+00
  3.34987264E-02  2.34800801E-01  8.13682958E-01  1.00000000E+00  1.00000000E+00
  3.34987264E-02  2.34800801E-01  8.13682958E-01  1.00000000E+00  1.00000000E+00
  3.34987264E-02  2.34800801E-01  8.13682958E-01  1.00000000E+00  1.00000000E+00
  3.34987264E-02  2.34800801E-01  8.13682958E-01  1.00000000E+00  1.00000000E+00
  3.34987264E-02  2.34800801E-01  8.13682958E-01  1.00000000E+00  1.00000000E+00
  3.34987264E-02  2.34800801E-01  8.13682958E-01  1.00000000E+00  1.00000000E+00
Coordinates of each shell                  R   N=         162
  4.41917727E-01 -2.93693672E+00 -1.07516400E+00  4.41917727E-01 -2.93693672E+00
 -1.07516400E+00  4.41917727E-01 -2.93693672E+00 -1.07516400E+00  4.41917727E-01
 -2.93693672E+00 -1.07516400E+00  4.41917727E-01 -2.93693672E+00 -1.07516400E+00
  4.41917727E-01 -2.93693672E+00 -1.07516400E+00 -4.41917727E-01 -1.38333552E+00
  1.20193406E+00 -4.41917727E-01 -1.38333552E+00  1.20193406E+00 -4.41917727E-01
 -1.38333552E+00  1.20193406E+00 -4.41917727E-01 -1.38333552E+00  1.20193406E+00
 -4.41917727E-01 -1.38333552E+00  1.20193406E+00 -4.41917727E-01 -1.38333552E+00
  1.20193406E+00  4.41917727E-01  1.38333552E+00  1.20193406E+00  4.41917727E-01
  1.38333552E+00  1.20193406E+00  4.41917727E-01  1.38333552E+00  1.20193406E+00
  4.41917727E-01  1.38333552E+00  1.20193406E+00  4.41917727E-01  1.38333552E+00
  1.20193406E+00  4.41917727E-01  1.38333552E+00  1.20193406E+00 -4.41917727E-01
  2.93693672E+00 -1.07516400E+00 -4.41917727E-01  2.93693672E+00 -1.07516400E+00
 -4.41917727E-01  2.93693672E+00 -1.07516400E+00 -4.41917727E-01  2.93693672E+00
 -1.07516400E+00 -4.41917727E-01  2.93693672E+00 -1.07516400E+00 -4.41917727E-01
  2.93693672E+00 -1.07516400E+00 -2.53049992E+00 -1.43057206E+00  1.29468843E+00
 -2.53049992E+00 -1.43057206E+00  1.29468843E+00 -2.53049992E+00 -1.43057206E+00
  1.29468843E+00  2.27793140E-01 -2.29592278E+00  2.95578925E+00  2.27793140E-01
 -2.29592278E+00  2.95578925E+00  2.27793140E-01 -2.29592278E+00  2.95578925E+00
 -2.27793140E-01  2.29592278E+00  2.95578925E+00 -2.27793140E-01  2.29592278E+00
  2.95578925E+00 -2.27793140E-01  2.29592278E+00  2.95578925E+00  2.53049992E+00
  1.43057206E+00  1.29468843E+00  2.53049992E+00  1.43057206E+00  1.29468843E+00
  2.53049992E+00  1.43057206E+00  1.29468843E+00  1.53682520E-01  4.92542509E+00
 -9.02871257E-01  1.53682520E-01  4.92542509E+00 -9.02871257E-01  1.53682520E-01
  4.92542509E+00 -9.02871257E-01  3.36631281E-01  2.21098423E+00 -2.86518886E+00
  3.36631281E-01  2.21098423E+00 -2.86518886E+00  3.36631281E-01  2.21098423E+00
 -2.86518886E+00 -2.52175839E+00  2.91725733E+00 -1.24303793E+00 -2.52175839E+00
  2.91725733E+00 -1.24303793E+00 -2.52175839E+00  2.91725733E+00 -1.24303793E+00
 -1.53682520E-01 -4.92542509E+00 -9.02871257E-01 -1.53682520E-01 -4.92542509E+00
 -9.02871257E-01 -1.53682520E-01 -4.92542509E+00 -9.02871257E-01 -3.36631281E-01
 -2.21098423E+00 -2.86518886E+00 -3.36631281E-01 -2.21098423E+00 -2.86518886E+00
 -3.36631281E-01 -2.21098423E+00 -2.86518886E+00  2.52175839E+00 -2.91725733E+00
 -1.24303793E+00  2.52175839E+00 -2.91725733E+00 -1.24303793E+00  2.52175839E+00
 -2.91725733E+00 -1.24303793E+00
Alpha Orbital Energies                     R   N=         106
 -1.01805720E+01 -1.01804011E+01 -1.01754336E+01 -1.01754238E+01 -7.90168736E-01
 -7.16492449E-01 -6.37810322E-01 -5.61550865E-01 -4.52823398E-01 -4.49320980E-01
 -4.12278354E-01 -3.82130419E-01 -3.78350762E-01 -3.56176641E-01 -3.21687581E-01
 -3.21220568E-01 -3.18959906E-01  5.70346534E-02  9.21474337E-02  9.65553194E-02
  1.02522689E-01  1.29866412E-01  1.40699781E-01  1.47865209E-01  1.50959630E-01
  1.61878070E-01  1.72921740E-01  2.23073130E-01  2.26902412E-01  2.70266616E-01
  3.96711938E-01  4.00760218E-01  4.35716700E-01  4.37044975E-01  4.39477613E-01
  4.84714497E-01  5.31224149E-01  5.89331044E-01  6.03720286E-01  6.14131955E-01
  6.29144506E-01  6.41219354E-01  6.46639101E-01  6.61049217E-01  6.66602111E-01
  6.68844747E-01  6.78001816E-01  6.83343032E-01  6.99141243E-01  7.11359544E-01
  7.51874015E-01  8.01991028E-01  8.99574307E-01  9.01676891E-01  9.65860698E-01
  1.09343736E+00  1.12776124E+00  1.17588486E+00  1.19233980E+00  1.25253079E+00
  1.32042482E+00  1.38071533E+00  1.40204545E+00  1.42398425E+00  1.43580960E+00
  1.48255543E+00  1.57667116E+00  1.58433389E+00  1.58899138E+00  1.62421514E+00
  1.63412808E+00  1.65330201E+00  1.66432812E+00  1.67119270E+00  1.67799900E+00
  1.68260891E+00  1.70015789E+00  1.70616748E+00  1.71674989E+00  1.72352737E+00
  1.76397495E+00  1.79404895E+00  1.85068292E+00  1.87013630E+00  1.95662632E+00
  1.99829839E+00  2.03708451E+00  2.05800831E+00  2.08374197E+00  2.10534239E+00
  2.18988445E+00  2.21499980E+00  2.23791572E+00  2.25556835E+00  2.27777276E+00
  2.28342267E+00  2.40470990E+00  2.40991857E+00  2.46020124E+00  2.48241714E+00
  2.49306003E+00  2.51514644E+00  2.60478288E+00  2.62994512E+00  2.69234174E+00
  2.72232909E+00
Alpha MO coefficients                      R   N=       11236
  1.02065310E-02 -6.35767039E-04  6.24442778E-03  1.71483162E-05 -3.28123241E-04
 -2.36517017E-04 -2.43414425E-04  2.48761452E-03  1.86310778E-03 -4.39688289E-04
  2.13599575E-04 -5.30543249E-04 -5.63853985E-05  3.38482315E-04  7.04866273E-01
  2.20351782E-02 -1.30552714E-02 -4.04717547E-04 -3.50954200E-04  4.78359029E-04
 -1.29392031E-03  8.51475551E-04  2.80992458E-03  3.85638749E-04  3.67442338E-04
 -6.08421911E-04  1.05703717E-03 -4.89686365E-04  7.04866273E-01  2.20351782E-02
 -1.30552714E-02  4.04717547E-04  3.50954200E-04  4.78359029E-04  1.29392031E-03
 -8.51475551E-04  2.80992458E-03  3.85638749E-04 -3.67442338E-04  6.08421911E-04
  1.05703717E-03 -4.89686365E-04  1.02065310E-02 -6.35767039E-04  6.24442778E-03
 -1.71483162E-05  3.28123241E-04 -2.36517017E-04  2.43414425E-04 -2.48761452E-03
  1.86310778E-03 -4.39688289E-04 -2.13599575E-04  5.30543249E-04 -5.63853985E-05
  3.38482315E-04 -1.11258177E-03  1.61005110E-03 -1.40380403E-03  1.73462135E-04
 -1.30281673E-04 -1.30320698E-03  8.63017774E-04  6.58807017E-04 -7.07111057E-04
  1.24738608E-03 -1.30320698E-03  8.63017774E-04 -6.58807017E-04  7.07111057E-04
  1.24738608E-03 -1.11258177E-03  1.61005110E-03  1.40380403E-03 -1.73462135E-04
 -1.30281673E-04 -5.03975795E-04  6.62394568E-04  2.96296608E-05  1.80413262E-04
 -7.19058215E-05 -4.79558537E-04 -1.97560451E-04  1.03884683E-04  1.46616691E-04
 -5.00152767E-05 -6.77842407E-04  3.16025880E-05 -3.20832405E-05  1.02202312E-04
  4.18132849E-05 -5.03975795E-04  6.62394568E-04 -2.96296608E-05 -1.80413262E-04
 -7.19058215E-05 -4.79558537E-04 -1.97560451E-04 -1.03884683E-04 -1.46616691E-04
 -5.00152767E-05 -6.77842407E-04  3.16025880E-05  3.20832405E-05 -1.02202312E-04
  4.18132849E-05  1.40155616E-02  6.05062410E-04  3.29024814E-03  1.03433961E-04
  8.36932713E-05 -1.20586761E-04 -8.53607975E-04 -7.52807386E-05  1.27866989E-03
 -3.60194220E-04  4.00262494E-04 -5.16376458E-04  1.76532938E-04  1.22343332E-04
  7.04784053E-01  2.24706552E-02 -2.02108559E-02 -2.75075472E-04 -8.66765498E-05
  3.34048878E-04 -1.52488654E-03 -3.04651454E-03  1.90080575E-03 -2.45295434E-04
  2.01552317E-04 -3.61842876E-04  8.88846935E-05  1.83261923E-04 -7.04784053E-01
 -2.24706552E-02  2.02108559E-02 -2.75075472E-04 -8.66765498E-05 -3.34048878E-04
 -1.52488654E-03 -3.04651454E-03 -1.90080575E-03  2.45295434E-04  2.01552317E-04
 -3.61842876E-04 -8.88846935E-05 -1.83261923E-04 -1.40155616E-02 -6.05062410E-04
 -3.29024814E-03  1.03433961E-04  8.36932713E-05  1.20586761E-04 -8.53607975E-04
 -7.52807386E-05 -1.27866989E-03  3.60194220E-04  4.00262494E-04 -5.16376458E-04
 -1.76532938E-04 -1.22343332E-04 -3.93398891E-04  1.31532558E-03 -1.37783025E-03
 -3.85069399E-05 -8.00234346E-05 -5.31031941E-04  1.34730102E-03  5.33618289E-04
 -5.42449049E-04  1.07536892E-03  5.31031941E-04 -1.34730102E-03  5.33618289E-04
 -5.42449049E-04 -1.07536892E-03  3.93398891E-04 -1.31532558E-03 -1.37783025E-03
 -3.85069399E-05  8.00234346E-05  4.69369732E-04  8.83049397E-04 -8.12552145E-06
 -1.58580391E-04  3.71065561E-05  2.45045986E-04 -6.34081272E-04  4.52712939E-05
  1.79087281E-04 -3.11419799E-05  1.63051441E-04 -4.71869272E-04  5.50822195E-05
  1.64256680E-04 -3.59685409E-05 -4.69369732E-04 -8.83049397E-04 -8.12552145E-06
 -1.58580391E-04 -3.71065561E-05 -2.45045986E-04  6.34081272E-04  4.52712939E-05
  1.79087281E-04  3.11419799E-05 -1.63051441E-04  4.71869272E-04  5.50822195E-05
  1.64256680E-04  3.59685409E-05  7.04699676E-01  2.19564431E-02 -1.25555107E-02
  1.65589304E-04 -2.28011887E-04 -4.55225768E-04  2.61927245E-04 -1.39188552E-03
 -1.05163406E-03 -3.62806545E-04  1.86466401E-04 -3.76746444E-04  8.66646596E-05
  1.60976140E-04 -1.38737521E-02 -2.09176327E-05  1.29612974E-03 -1.35389722E-04
  2.03694367E-04  7.39316693E-05  3.77639456E-04 -2.20601806E-03 -3.26342465E-04
 -2.69633176E-04  1.92148699E-04 -5.20115584E-04  2.72406622E-04  1.07028349E-04
  1.38737521E-02  2.09176327E-05 -1.29612974E-03 -1.35389722E-04  2.03694367E-04
 -7.39316693E-05  3.77639456E-04 -2.20601806E-03  3.26342465E-04  2.69633176E-04
  1.92148699E-04 -5.20115584E-04 -2.72406622E-04 -1.07028349E-04 -7.04699676E-01
 -2.19564431E-02  1.25555107E-02  1.65589304E-04 -2.28011887E-04  4.55225768E-04
  2.61927245E-04 -1.39188552E-03  1.05163406E-03  3.62806545E-04  1.86466401E-04
 -3.76746444E-04 -8.66646596E-05 -1.60976140E-04 -1.14824591E-04  3.86333651E-04
 -1.47664393E-05  6.59763752E-05 -1.63891617E-04 -3.01410565E-04 -4.46497245E-04
  5.97094840E-05 -3.56355669E-06 -1.52996246E-05  3.01410565E-04  4.46497245E-04
  5.97094840E-05 -3.56355669E-06  1.52996246E-05  1.14824591E-04 -3.86333651E-04
 -1.47664393E-05  6.59763752E-05  1.63891617E-04  1.10037487E-03 -9.64803575E-04
 -4.48648810E-04 -1.38776367E-03 -1.68452831E-04  7.57343396E-04 -1.71830522E-03
 -5.10112134E-04  5.64476587E-04  1.09104119E-03  9.01226367E-04 -1.76017501E-03
  1.36868555E-03  1.77296572E-04  3.43952665E-05 -1.10037487E-03  9.64803575E-04
 -4.48648810E-04 -1.38776367E-03  1.68452831E-04 -7.57343396E-04  1.71830522E-03
 -5.10112134E-04  5.64476587E-04 -1.09104119E-03 -9.01226367E-04  1.76017501E-03
  1.36868555E-03  1.77296572E-04 -3.43952665E-05  7.04749992E-01  2.17265525E-02
 -1.27889151E-02  2.10228126E-04 -3.74983061E-04 -4.90030966E-04  4.25311139E-04
 -9.01489409E-04 -1.24131085E-03 -9.20006250E-05  2.62178472E-04 -4.16289382E-04
  7.64641019E-05  1.70093845E-04 -1.03060599E-02 -9.11064712E-04  3.56934727E-03
 -1.01038750E-04 -4.64881874E-05  3.72537962E-04  1.50412708E-04 -4.77068815E-04