Butano diedro spostato da usare per armonia                             
Freq      RB3LYP                                                      CC-pVDZ             
Number of atoms                            I               14
Charge                                     I                0
Multiplicity                               I                1
Number of electrons                        I               34
Number of alpha electrons                  I               17
Number of beta electrons                   I               17
Number of basis functions                  I              106
Number of independant functions            I              106
Number of point charges in /Mol/           I                0
Number of translation vectors              I                0
Number of symbols in /Mol/                 I                0
Info1-9                                    I   N=           9
          25          25        1001           0           0         100
           6          18        -501
Num ILSW                                   I              100
ILSW                                       I   N=         100
           0           0           0           0           2           0
           0           0           3           0         402      200000
           5           0           0           0           0           0
           0      800000           1           0           1           0
           1           0           0           0     1000000           0
           0           0           0           0          -1           0
           0           0           0           0           0           0
           0           0           0           1           0           0
           0           0           1      720000      810000           0
           0           0           0           0           0           0
           0           0           0           0           0           0
           0           0           0           0           0           0
           0           0           0           0           0           0
           0           0           0           0           0           0
           0           0           0           0           0           0
           0           0           0           0           0           0
           0           0           0           0
Number of contracted shells                I               54
Highest angular momentum                   I                2
Largest degree of contraction              I                7
Number of primitive shells                 I              130
Pure/Cartesian d shells                    I                0
Pure/Cartesian f shells                    I                0
Virial Ratio                               R      2.009395737975063E+00
SCF Energy                                 R     -1.584587705107503E+02
Total Energy                               R     -1.584587705107503E+02
RMS Force                                  R      7.519939537873901E-07
RMS Density                                R      5.064410311086014E-09
Atomic numbers                             I   N=          14
           6           6           6           6           1           1
           1           1           1           1           1           1
           1           1
Nuclear charges                            R   N=          14
  6.00000000E+00  6.00000000E+00  6.00000000E+00  6.00000000E+00  1.00000000E+00
  1.00000000E+00  1.00000000E+00  1.00000000E+00  1.00000000E+00  1.00000000E+00
  1.00000000E+00  1.00000000E+00  1.00000000E+00  1.00000000E+00
Current cartesian coordinates              R   N=          42
 -1.32897650E+00  3.46667278E+00  0.00000000E+00 -1.32897650E+00  5.74967817E-01
  0.00000000E+00  1.32897650E+00 -5.74967817E-01  0.00000000E+00  1.32897650E+00
 -3.46667278E+00  0.00000000E+00 -2.37772701E+00 -1.24250514E-01  1.66746415E+00
 -2.37772873E+00 -1.24251297E-01 -1.66746217E+00  2.37772873E+00  1.24251297E-01
 -1.66746217E+00  2.37772701E+00  1.24250514E-01  1.66746415E+00  3.26517206E+00
 -4.23384199E+00  0.00000000E+00  3.51877838E-01 -4.22302921E+00  1.68004027E+00
  3.51879558E-01 -4.22302843E+00 -1.68004208E+00 -3.26517206E+00  4.23384199E+00
  0.00000000E+00 -3.51877838E-01  4.22302921E+00  1.68004027E+00 -3.51879558E-01
  4.22302843E+00 -1.68004208E+00
Atom Types                                 C   N=          14
                                                            
                                                            
                                                
Int Atom Types                             I   N=          14
           0           0           0           0           0           0
           0           0           0           0           0           0
           0           0
Force Field                                I                0
MM charges                                 R   N=          14
  0.00000000E+00  0.00000000E+00  0.00000000E+00  0.00000000E+00  0.00000000E+00
  0.00000000E+00  0.00000000E+00  0.00000000E+00  0.00000000E+00  0.00000000E+00
  0.00000000E+00  0.00000000E+00  0.00000000E+00  0.00000000E+00
Integer atomic weights                     I   N=          14
          12          12          12          12           1           1
           1           1           1           1           1           1
           1           1
Real atomic weights                        R   N=          14
  1.20000000E+01  1.20000000E+01  1.20000000E+01  1.20000000E+01  1.00782504E+00
  1.00782504E+00  1.00782504E+00  1.00782504E+00  1.00782504E+00  1.00782504E+00
  1.00782504E+00  1.00782504E+00  1.00782504E+00  1.00782504E+00
Atom residue info                          I   N=          14
           0           0           0           0           0           0
           0           0           0           0           0           0
           0           0
Atom fragment info                         I   N=          14
           0           0           0           0           0           0
           0           0           0           0           0           0
           0           0
Atom residue num                           I   N=          14
           0           0           0           0           0           0
           0           0           0           0           0           0
           0           0
Nuclear spins                              I   N=          14
           0           0           0           0           1           1
           1           1           1           1           1           1
           1           1
Nuclear ZEff                               R   N=          14
 -3.60000000E+00 -3.60000000E+00 -3.60000000E+00 -3.60000000E+00 -1.00000000E+00
 -1.00000000E+00 -1.00000000E+00 -1.00000000E+00 -1.00000000E+00 -1.00000000E+00
 -1.00000000E+00 -1.00000000E+00 -1.00000000E+00 -1.00000000E+00
Nuclear QMom                               R   N=          14
  0.00000000E+00  0.00000000E+00  0.00000000E+00  0.00000000E+00  0.00000000E+00
  0.00000000E+00  0.00000000E+00  0.00000000E+00  0.00000000E+00  0.00000000E+00
  0.00000000E+00  0.00000000E+00  0.00000000E+00  0.00000000E+00
Nuclear GFac                               R   N=          14
  0.00000000E+00  0.00000000E+00  0.00000000E+00  0.00000000E+00  2.79284600E+00
  2.79284600E+00  2.79284600E+00  2.79284600E+00  2.79284600E+00  2.79284600E+00
  2.79284600E+00  2.79284600E+00  2.79284600E+00  2.79284600E+00
MicOpt                                     I   N=          14
          -1          -1          -1          -1          -1          -1
          -1          -1          -1          -1          -1          -1
          -1          -1
Constraint Structure                       R   N=          42
 -1.32897650E+00  3.46667278E+00  0.00000000E+00 -1.32897650E+00  5.74967817E-01
  0.00000000E+00  1.32897650E+00 -5.74967817E-01  0.00000000E+00  1.32897650E+00
 -3.46667278E+00  0.00000000E+00 -2.37772701E+00 -1.24250514E-01  1.66746415E+00
 -2.37772873E+00 -1.24251297E-01 -1.66746217E+00  2.37772873E+00  1.24251297E-01
 -1.66746217E+00  2.37772701E+00  1.24250514E-01  1.66746415E+00  3.26517206E+00
 -4.23384199E+00  0.00000000E+00  3.51877838E-01 -4.22302921E+00  1.68004027E+00
  3.51879558E-01 -4.22302843E+00 -1.68004208E+00 -3.26517206E+00  4.23384199E+00
  0.00000000E+00 -3.51877838E-01  4.22302921E+00  1.68004027E+00 -3.51879558E-01
  4.22302843E+00 -1.68004208E+00
ONIOM Charges                              I   N=          16
           0           0           0           0           0           0
           0           0           0           0           0           0
           0           0           0           0
ONIOM Multiplicities                       I   N=          16
           1           0           0           0           0           0
           0           0           0           0           0           0
           0           0           0           0
Atom Layers                                I   N=          14
           0           0           0           0           0           0
           0           0           0           0           0           0
           0           0
Atom Modifiers                             I   N=          14
           0           0           0           0           0           0
           0           0           0           0           0           0
           0           0
Atom Modified Types                        C   N=          14
                                                            
                                                            
                                                
Int Atom Modified Types                    I   N=          14
           0           0           0           0           0           0
           0           0           0           0           0           0
           0           0
Link Atoms                                 I   N=          14
           0           0           0           0           0           0
           0           0           0           0           0           0
           0           0
Atom Modified MM Charges                   R   N=          14
  0.00000000E+00  0.00000000E+00  0.00000000E+00  0.00000000E+00  0.00000000E+00
  0.00000000E+00  0.00000000E+00  0.00000000E+00  0.00000000E+00  0.00000000E+00
  0.00000000E+00  0.00000000E+00  0.00000000E+00  0.00000000E+00
Link Distances                             R   N=          56
  0.00000000E+00  0.00000000E+00  0.00000000E+00  0.00000000E+00  0.00000000E+00
  0.00000000E+00  0.00000000E+00  0.00000000E+00  0.00000000E+00  0.00000000E+00
  0.00000000E+00  0.00000000E+00  0.00000000E+00  0.00000000E+00  0.00000000E+00
  0.00000000E+00  0.00000000E+00  0.00000000E+00  0.00000000E+00  0.00000000E+00
  0.00000000E+00  0.00000000E+00  0.00000000E+00  0.00000000E+00  0.00000000E+00
  0.00000000E+00  0.00000000E+00  0.00000000E+00  0.00000000E+00  0.00000000E+00
  0.00000000E+00  0.00000000E+00  0.00000000E+00  0.00000000E+00  0.00000000E+00
  0.00000000E+00  0.00000000E+00  0.00000000E+00  0.00000000E+00  0.00000000E+00
  0.00000000E+00  0.00000000E+00  0.00000000E+00  0.00000000E+00  0.00000000E+00
  0.00000000E+00  0.00000000E+00  0.00000000E+00  0.00000000E+00  0.00000000E+00
  0.00000000E+00  0.00000000E+00  0.00000000E+00  0.00000000E+00  0.00000000E+00
  0.00000000E+00
MxBond                                     I                4
NBond                                      I   N=          14
           4           4           4           4           1           1
           1           1           1           1           1           1
           1           1
IBond                                      I   N=          56
           2          12          13          14           1           3
           5           6           2           4           7           8
           3           9          10          11           2           0
           0           0           2           0           0           0
           3           0           0           0           3           0
           0           0           4           0           0           0
           4           0           0           0           4           0
           0           0           1           0           0           0
           1           0           0           0           1           0
           0           0
RBond                                      R   N=          56
  1.00000000E+00  1.00000000E+00  1.00000000E+00  1.00000000E+00  1.00000000E+00
  1.00000000E+00  1.00000000E+00  1.00000000E+00  1.00000000E+00  1.00000000E+00
  1.00000000E+00  1.00000000E+00  1.00000000E+00  1.00000000E+00  1.00000000E+00
  1.00000000E+00  1.00000000E+00  0.00000000E+00  0.00000000E+00  0.00000000E+00
  1.00000000E+00  0.00000000E+00  0.00000000E+00  0.00000000E+00  1.00000000E+00
  0.00000000E+00  0.00000000E+00  0.00000000E+00  1.00000000E+00  0.00000000E+00
  0.00000000E+00  0.00000000E+00  1.00000000E+00  0.00000000E+00  0.00000000E+00
  0.00000000E+00  1.00000000E+00  0.00000000E+00  0.00000000E+00  0.00000000E+00
  1.00000000E+00  0.00000000E+00  0.00000000E+00  0.00000000E+00  1.00000000E+00
  0.00000000E+00  0.00000000E+00  0.00000000E+00  1.00000000E+00  0.00000000E+00
  0.00000000E+00  0.00000000E+00  1.00000000E+00  0.00000000E+00  0.00000000E+00
  0.00000000E+00
Shell types                                I   N=          54
           0           0           0           1           1          -2
           0           0           0           1           1          -2
           0           0           0           1           1          -2
           0           0           0           1           1          -2
           0           0           1           0           0           1
           0           0           1           0           0           1
           0           0           1           0           0           1
           0           0           1           0           0           1
           0           0           1           0           0           1
Number of primitives per shell             I   N=          54
           7           7           1           3           1           1
           7           7           1           3           1           1
           7           7           1           3           1           1
           7           7           1           3           1           1
           3           1           1           3           1           1
           3           1           1           3           1           1
           3           1           1           3           1           1
           3           1           1           3           1           1
           3           1           1           3           1           1
Shell to atom map                          I   N=          54
           1           1           1           1           1           1
           2           2           2           2           2           2
           3           3           3           3           3           3
           4           4           4           4           4           4
           5           5           5           6           6           6
           7           7           7           8           8           8
           9           9           9          10          10          10
          11          11          11          12          12          12
          13          13          13          14          14          14
Primitive exponents                        R   N=         130
  6.66500000E+03  1.00000000E+03  2.28000000E+02  6.47100000E+01  2.10600000E+01
  7.49500000E+00  2.79700000E+00  6.66500000E+03  1.00000000E+03  6.47100000E+01
  2.10600000E+01  7.49500000E+00  2.79700000E+00  5.21500000E-01  1.59600000E-01
  9.43900000E+00  2.00200000E+00  5.45600000E-01  1.51700000E-01  5.50000000E-01
  6.66500000E+03  1.00000000E+03  2.28000000E+02  6.47100000E+01  2.10600000E+01
  7.49500000E+00  2.79700000E+00  6.66500000E+03  1.00000000E+03  6.47100000E+01
  2.10600000E+01  7.49500000E+00  2.79700000E+00  5.21500000E-01  1.59600000E-01
  9.43900000E+00  2.00200000E+00  5.45600000E-01  1.51700000E-01  5.50000000E-01
  6.66500000E+03  1.00000000E+03  2.28000000E+02  6.47100000E+01  2.10600000E+01
  7.49500000E+00  2.79700000E+00  6.66500000E+03  1.00000000E+03  6.47100000E+01
  2.10600000E+01  7.49500000E+00  2.79700000E+00  5.21500000E-01  1.59600000E-01
  9.43900000E+00  2.00200000E+00  5.45600000E-01  1.51700000E-01  5.50000000E-01
  6.66500000E+03  1.00000000E+03  2.28000000E+02  6.47100000E+01  2.10600000E+01
  7.49500000E+00  2.79700000E+00  6.66500000E+03  1.00000000E+03  6.47100000E+01
  2.10600000E+01  7.49500000E+00  2.79700000E+00  5.21500000E-01  1.59600000E-01
  9.43900000E+00  2.00200000E+00  5.45600000E-01  1.51700000E-01  5.50000000E-01
  1.30100000E+01  1.96200000E+00  4.44600000E-01  1.22000000E-01  7.27000000E-01
  1.30100000E+01  1.96200000E+00  4.44600000E-01  1.22000000E-01  7.27000000E-01
  1.30100000E+01  1.96200000E+00  4.44600000E-01  1.22000000E-01  7.27000000E-01
  1.30100000E+01  1.96200000E+00  4.44600000E-01  1.22000000E-01  7.27000000E-01
  1.30100000E+01  1.96200000E+00  4.44600000E-01  1.22000000E-01  7.27000000E-01
  1.30100000E+01  1.96200000E+00  4.44600000E-01  1.22000000E-01  7.27000000E-01
  1.30100000E+01  1.96200000E+00  4.44600000E-01  1.22000000E-01  7.27000000E-01
  1.30100000E+01  1.96200000E+00  4.44600000E-01  1.22000000E-01  7.27000000E-01
  1.30100000E+01  1.96200000E+00  4.44600000E-01  1.22000000E-01  7.27000000E-01
  1.30100000E+01  1.96200000E+00  4.44600000E-01  1.22000000E-01  7.27000000E-01
Contraction coefficients                   R   N=         130
  6.93516317E-04  5.34150243E-03  2.71366714E-02  1.01992385E-01  2.75508636E-01
  4.51086433E-01  2.87565745E-01  6.28313219E-07 -5.48480000E-05 -3.63137064E-03
 -1.17983699E-02 -1.10909885E-01 -1.34742247E-01  1.10175849E+00  1.00000000E+00
  5.69792516E-02  3.13207212E-01  7.60376742E-01  1.00000000E+00  1.00000000E+00
  6.93516317E-04  5.34150243E-03  2.71366714E-02  1.01992385E-01  2.75508636E-01
  4.51086433E-01  2.87565745E-01  6.28313219E-07 -5.48480000E-05 -3.63137064E-03
 -1.17983699E-02 -1.10909885E-01 -1.34742247E-01  1.10175849E+00  1.00000000E+00
  5.69792516E-02  3.13207212E-01  7.60376742E-01  1.00000000E+00  1.00000000E+00
  6.93516317E-04  5.34150243E-03  2.71366714E-02  1.01992385E-01  2.75508636E-01
  4.51086433E-01  2.87565745E-01  6.28313219E-07 -5.48480000E-05 -3.63137064E-03
 -1.17983699E-02 -1.10909885E-01 -1.34742247E-01  1.10175849E+00  1.00000000E+00
  5.69792516E-02  3.13207212E-01  7.60376742E-01  1.00000000E+00  1.00000000E+00
  6.93516317E-04  5.34150243E-03  2.71366714E-02  1.01992385E-01  2.75508636E-01
  4.51086433E-01  2.87565745E-01  6.28313219E-07 -5.48480000E-05 -3.63137064E-03
 -1.17983699E-02 -1.10909885E-01 -1.34742247E-01  1.10175849E+00  1.00000000E+00
  5.69792516E-02  3.13207212E-01  7.60376742E-01  1.00000000E+00  1.00000000E+00
  3.34987264E-02  2.34800801E-01  8.13682958E-01  1.00000000E+00  1.00000000E+00
  3.34987264E-02  2.34800801E-01  8.13682958E-01  1.00000000E+00  1.00000000E+00
  3.34987264E-02  2.34800801E-01  8.13682958E-01  1.00000000E+00  1.00000000E+00
  3.34987264E-02  2.34800801E-01  8.13682958E-01  1.00000000E+00  1.00000000E+00
  3.34987264E-02  2.34800801E-01  8.13682958E-01  1.00000000E+00  1.00000000E+00
  3.34987264E-02  2.34800801E-01  8.13682958E-01  1.00000000E+00  1.00000000E+00
  3.34987264E-02  2.34800801E-01  8.13682958E-01  1.00000000E+00  1.00000000E+00
  3.34987264E-02  2.34800801E-01  8.13682958E-01  1.00000000E+00  1.00000000E+00
  3.34987264E-02  2.34800801E-01  8.13682958E-01  1.00000000E+00  1.00000000E+00
  3.34987264E-02  2.34800801E-01  8.13682958E-01  1.00000000E+00  1.00000000E+00
Coordinates of each shell                  R   N=         162
 -1.32897650E+00  3.46667278E+00  0.00000000E+00 -1.32897650E+00  3.46667278E+00
  0.00000000E+00 -1.32897650E+00  3.46667278E+00  0.00000000E+00 -1.32897650E+00
  3.46667278E+00  0.00000000E+00 -1.32897650E+00  3.46667278E+00  0.00000000E+00
 -1.32897650E+00  3.46667278E+00  0.00000000E+00 -1.32897650E+00  5.74967817E-01
  0.00000000E+00 -1.32897650E+00  5.74967817E-01  0.00000000E+00 -1.32897650E+00
  5.74967817E-01  0.00000000E+00 -1.32897650E+00  5.74967817E-01  0.00000000E+00
 -1.32897650E+00  5.74967817E-01  0.00000000E+00 -1.32897650E+00  5.74967817E-01
  0.00000000E+00  1.32897650E+00 -5.74967817E-01  0.00000000E+00  1.32897650E+00
 -5.74967817E-01  0.00000000E+00  1.32897650E+00 -5.74967817E-01  0.00000000E+00
  1.32897650E+00 -5.74967817E-01  0.00000000E+00  1.32897650E+00 -5.74967817E-01
  0.00000000E+00  1.32897650E+00 -5.74967817E-01  0.00000000E+00  1.32897650E+00
 -3.46667278E+00  0.00000000E+00  1.32897650E+00 -3.46667278E+00  0.00000000E+00
  1.32897650E+00 -3.46667278E+00  0.00000000E+00  1.32897650E+00 -3.46667278E+00
  0.00000000E+00  1.32897650E+00 -3.46667278E+00  0.00000000E+00  1.32897650E+00
 -3.46667278E+00  0.00000000E+00 -2.37772701E+00 -1.24250514E-01  1.66746415E+00
 -2.37772701E+00 -1.24250514E-01  1.66746415E+00 -2.37772701E+00 -1.24250514E-01
  1.66746415E+00 -2.37772873E+00 -1.24251297E-01 -1.66746217E+00 -2.37772873E+00
 -1.24251297E-01 -1.66746217E+00 -2.37772873E+00 -1.24251297E-01 -1.66746217E+00
  2.37772873E+00  1.24251297E-01 -1.66746217E+00  2.37772873E+00  1.24251297E-01
 -1.66746217E+00  2.37772873E+00  1.24251297E-01 -1.66746217E+00  2.37772701E+00
  1.24250514E-01  1.66746415E+00  2.37772701E+00  1.24250514E-01  1.66746415E+00
  2.37772701E+00  1.24250514E-01  1.66746415E+00  3.26517206E+00 -4.23384199E+00
  0.00000000E+00  3.26517206E+00 -4.23384199E+00  0.00000000E+00  3.26517206E+00
 -4.23384199E+00  0.00000000E+00  3.51877838E-01 -4.22302921E+00  1.68004027E+00
  3.51877838E-01 -4.22302921E+00  1.68004027E+00  3.51877838E-01 -4.22302921E+00
  1.68004027E+00  3.51879558E-01 -4.22302843E+00 -1.68004208E+00  3.51879558E-01
 -4.22302843E+00 -1.68004208E+00  3.51879558E-01 -4.22302843E+00 -1.68004208E+00
 -3.26517206E+00  4.23384199E+00  0.00000000E+00 -3.26517206E+00  4.23384199E+00
  0.00000000E+00 -3.26517206E+00  4.23384199E+00  0.00000000E+00 -3.51877838E-01
  4.22302921E+00  1.68004027E+00 -3.51877838E-01  4.22302921E+00  1.68004027E+00
 -3.51877838E-01  4.22302921E+00  1.68004027E+00 -3.51879558E-01  4.22302843E+00
 -1.68004208E+00 -3.51879558E-01  4.22302843E+00 -1.68004208E+00 -3.51879558E-01
  4.22302843E+00 -1.68004208E+00
Alpha Orbital Energies                     R   N=         106
 -1.01803090E+01 -1.01801408E+01 -1.01759348E+01 -1.01759272E+01 -7.90750897E-01
 -7.20674858E-01 -6.27105206E-01 -5.71999992E-01 -4.63524029E-01 -4.22556959E-01
 -4.16283220E-01 -4.06400168E-01 -3.65597319E-01 -3.46662705E-01 -3.32595873E-01
 -3.20700712E-01 -3.19387870E-01  6.10829523E-02  8.04422620E-02  9.54736590E-02
  1.00947116E-01  1.37586891E-01  1.40434007E-01  1.51212972E-01  1.53321701E-01
  1.60792868E-01  1.70175881E-01  2.26454843E-01  2.32803142E-01  2.49802319E-01
  4.02089143E-01  4.06156738E-01  4.09101003E-01  4.18318000E-01  4.50406815E-01
  5.07558660E-01  5.10053802E-01  5.83224396E-01  6.12180100E-01  6.34723304E-01
  6.43169033E-01  6.48234884E-01  6.52980700E-01  6.64197101E-01  6.69613463E-01
  6.69742985E-01  6.79563505E-01  6.99504224E-01  7.04501252E-01  7.24361759E-01
  7.40510970E-01  7.41986367E-01  8.97597652E-01  9.00331310E-01  9.60721380E-01
  1.07342645E+00  1.20365106E+00  1.22228311E+00  1.22382013E+00  1.22589379E+00
  1.28660561E+00  1.32684540E+00  1.42599529E+00  1.42632110E+00  1.43641338E+00
  1.49163039E+00  1.57388562E+00  1.60473584E+00  1.60818143E+00  1.62275257E+00
  1.62376376E+00  1.62473279E+00  1.64665716E+00  1.65804177E+00  1.69355690E+00
  1.70217618E+00  1.71064458E+00  1.71189965E+00  1.71261329E+00  1.74436478E+00
  1.74624374E+00  1.78155790E+00  1.87103310E+00  1.91637553E+00  1.91782892E+00
  1.95990390E+00  1.99348139E+00  2.09317080E+00  2.11716439E+00  2.13391978E+00
  2.18728246E+00  2.21648166E+00  2.21697067E+00  2.27215472E+00  2.28655598E+00
  2.31346828E+00  2.40431146E+00  2.41251801E+00  2.41727749E+00  2.46057477E+00
  2.48687636E+00  2.50740467E+00  2.58456554E+00  2.63378003E+00  2.70319124E+00
  2.71316941E+00
Alpha MO coefficients                      R   N=       11236
  1.27249984E-02 -2.21777773E-04  4.49001065E-03 -9.71667787E-05  4.20905321E-04
 -2.58702129E-11  2.18243637E-04 -1.76427942E-03  1.20227508E-09  2.48017173E-04
  2.75625681E-10 -5.41644968E-13  8.46814849E-04 -1.44343657E-05  7.04792907E-01
  2.17335496E-02 -1.22011380E-02 -7.72153844E-04 -2.99980795E-04 -5.02267624E-11
 -2.93310809E-04 -2.15232733E-03 -3.33128920E-09  9.91148226E-04  1.42361712E-09
  1.10276682E-09 -2.37569382E-04  8.65938223E-04  7.04792907E-01  2.17335496E-02
 -1.22011380E-02  7.72153844E-04  2.99980795E-04 -5.02267624E-11  2.93310809E-04
  2.15232733E-03 -3.33128920E-09  9.91148226E-04 -1.42361712E-09 -1.10276682E-09
 -2.37569382E-04  8.65938223E-04  1.27249984E-02 -2.21777773E-04  4.49001065E-03
  9.71667787E-05 -4.20905321E-04 -2.58702129E-11 -2.18243637E-04  1.76427942E-03
  1.20227508E-09  2.48017173E-04 -2.75625681E-10  5.41644968E-13  8.46814849E-04
 -1.44343657E-05 -1.13950849E-03  1.76280237E-03 -5.34312096E-04 -4.55198935E-04
  1.21430639E-03 -1.13951267E-03  1.76279953E-03 -5.34315128E-04 -4.55199531E-04
 -1.21430621E-03 -1.13951267E-03  1.76279953E-03  5.34315128E-04  4.55199531E-04
 -1.21430621E-03 -1.13950849E-03  1.76280237E-03  5.34312096E-04  4.55198935E-04
  1.21430639E-03 -5.16357059E-04  1.13973610E-04  1.29066980E-04 -1.30455242E-04
 -1.63498346E-11 -3.90891318E-04 -3.73368019E-05  4.02959277E-05 -1.64951284E-05
  7.44157678E-05 -3.90890990E-04 -3.73348464E-05  4.02959690E-05 -1.64946378E-05
 -7.44156475E-05 -5.16357059E-04  1.13973610E-04 -1.29066980E-04  1.30455242E-04
 -1.63498346E-11 -3.90891318E-04 -3.73368019E-05 -4.02959277E-05  1.64951284E-05
  7.44157678E-05 -3.90890990E-04 -3.73348464E-05 -4.02959690E-05  1.64946378E-05
 -7.44156475E-05  1.60821254E-02  4.14417524E-04  4.24674807E-03  9.56535498E-05
  7.15659208E-05 -1.36361719E-10 -1.84652188E-04 -1.90481905E-03  1.25669046E-09
  4.41056969E-04  7.80248304E-11 -4.84829749E-10  5.28647963E-04 -7.12737191E-05
  7.04762026E-01  2.26411750E-02 -2.16797616E-02 -3.11571812E-04 -3.17032942E-04
  1.67494728E-10 -4.26171325E-03 -3.44632466E-04 -2.84319563E-09  3.21327758E-04
  1.37080582E-09 -8.40876859E-11  5.88536384E-04  5.56372930E-05 -7.04762026E-01
 -2.26411750E-02  2.16797616E-02 -3.11571812E-04 -3.17032942E-04 -1.67494728E-10
 -4.26171325E-03 -3.44632466E-04  2.84319563E-09 -3.21327758E-04  1.37080582E-09
 -8.40876859E-11 -5.88536384E-04 -5.56372930E-05 -1.60821254E-02 -4.14417524E-04
 -4.24674807E-03  9.56535498E-05  7.15659208E-05  1.36361719E-10 -1.84652188E-04
 -1.90481905E-03 -1.25669046E-09 -4.41056969E-04  7.80248304E-11 -4.84829749E-10
 -5.28647963E-04  7.12737191E-05 -4.68451029E-04  1.24902463E-03 -6.61543987E-04
 -3.64775375E-04  1.16415276E-03 -4.68454159E-04  1.24902377E-03 -6.61544928E-04
 -3.64777228E-04 -1.16415244E-03  4.68454159E-04 -1.24902377E-03 -6.61544928E-04
 -3.64777228E-04  1.16415244E-03  4.68451029E-04 -1.24902463E-03 -6.61543987E-04
 -3.64775375E-04 -1.16415276E-03  4.16978664E-04  4.87608207E-04 -1.02069537E-04
  1.45815216E-04  8.19059894E-12  3.39081688E-04 -4.82743676E-04  9.59947078E-05
 -9.11779268E-05 -3.35889969E-05  3.39081840E-04 -4.82745025E-04  9.59948949E-05
 -9.11785335E-05  3.35894042E-05 -4.16978664E-04 -4.87608207E-04 -1.02069537E-04
  1.45815216E-04 -8.19059894E-12 -3.39081688E-04  4.82743676E-04  9.59947078E-05
 -9.11779268E-05  3.35889969E-05 -3.39081840E-04  4.82745025E-04  9.59948949E-05
 -9.11785335E-05 -3.35894042E-05  7.04701429E-01  2.22202525E-02 -1.50395385E-02
  6.06636272E-05  5.95857006E-04 -2.61499835E-11 -7.52150751E-04  2.94437329E-03
  1.91667996E-09  2.84846382E-04  1.09990915E-09  3.41898605E-10  5.45152589E-04
 -4.24839886E-05 -1.60105602E-02 -3.21048602E-04  2.95184709E-03 -4.56266282E-06
 -4.44176762E-04  1.89622486E-10 -8.82778720E-04  3.77562780E-03 -1.37468369E-09
  5.49025974E-04 -4.08668807E-11 -1.76398278E-10  5.20144915E-04  4.77961440E-06
  1.60105602E-02  3.21048602E-04 -2.95184709E-03 -4.56266282E-06 -4.44176762E-04
 -1.89622486E-10 -8.82778720E-04  3.77562780E-03  1.37468369E-09 -5.49025974E-04
 -4.08668807E-11 -1.76398278E-10 -5.20144915E-04 -4.77961440E-06 -7.04701429E-01
 -2.22202525E-02  1.50395385E-02  6.06636272E-05  5.95857006E-04  2.61499835E-11
 -7.52150751E-04  2.94437329E-03 -1.91667996E-09 -2.84846382E-04  1.09990915E-09
  3.41898605E-10 -5.45152589E-04  4.24839886E-05 -1.27390553E-04  3.94990541E-04
  3.73828282E-05 -1.38353329E-04 -3.08227378E-05 -1.27390401E-04  3.94989021E-04
  3.73829446E-05 -1.38353823E-04  3.08231329E-05  1.27390401E-04 -3.94989021E-04
  3.73829446E-05 -1.38353823E-04 -3.08231329E-05  1.27390553E-04 -3.94990541E-04
  3.73828282E-05 -1.38353329E-04  3.08227378E-05  9.64023633E-04 -8.73392999E-04
 -1.37110196E-03  4.43206764E-04 -5.99356209E-11  6.94770465E-04 -1.60235544E-03
  7.06350654E-04  3.51675349E-04 -1.10206124E-03  6.94768132E-04 -1.60235618E-03
  7.06349110E-04  3.51674334E-04  1.10206153E-03 -9.64023633E-04  8.73392999E-04
 -1.37110196E-03  4.43206764E-04  5.99356209E-11 -6.94770465E-04  1.60235544E-03
  7.06350654E-04  3.51675349E-04  1.10206124E-03 -6.94768132E-04  1.60235618E-03
  7.06349110E-04  3.51674334E-04 -1.10206153E-03  7.04689811E-01  2.16459156E-02
 -1.11380441E-02  4.53345913E-05  5.81031706E-04  3.41650162E-11 -5.01430798E-04
  8.93881599E-04  1.12785712E-09  2.45920366E-04  1.18867287E-09  4.39007615E-10
  4.53383974E-04  2.00731171E-05 -1.27550132E-02 -8.50685758E-04  2.84815478E-03
 -1.29722995E-04 -9.29138928E-05  4.27627653E-11 -1.42913139E-04 -3.68752251E-04