Butano diedro spostato da usare per armonia - tors CH3                  
Freq      RB3LYP                                                      CC-pVDZ             
Number of atoms                            I               14
Charge                                     I                0
Multiplicity                               I                1
Number of electrons                        I               34
Number of alpha electrons                  I               17
Number of beta electrons                   I               17
Number of basis functions                  I              106
Number of independant functions            I              106
Number of point charges in /Mol/           I                0
Number of translation vectors              I                0
Number of symbols in /Mol/                 I                0
Info1-9                                    I   N=           9
          24          24        1001           0           0         100
           6          18        -501
Num ILSW                                   I              100
ILSW                                       I   N=         100
           0           0           0           0           2           0
           0           0           3           0         402      200000
           5           0           0           0           0           0
           0      800000           1           0           1           0
           1           0           0           0     1000000           0
           0           0           0           0          -1           0
           0           0           0           0           0           0
           0           0           0           1           0           0
           0           0           1      720000      810000           0
           0           0           0           0           0           0
           0           0           0           0           0           0
           0           0           0           0           0           0
           0           0           0           0           0           0
           0           0           0           0           0           0
           0           0           0           0           0           0
           0           0           0           0           0           0
           0           0           0           0
Number of contracted shells                I               54
Highest angular momentum                   I                2
Largest degree of contraction              I                7
Number of primitive shells                 I              130
Pure/Cartesian d shells                    I                0
Pure/Cartesian f shells                    I                0
Virial Ratio                               R      2.009395146098953E+00
SCF Energy                                 R     -1.584587708001618E+02
Total Energy                               R     -1.584587708001618E+02
RMS Force                                  R      1.420412719520839E-05
RMS Density                                R      1.451146134433709E-09
Atomic numbers                             I   N=          14
           6           6           6           6           1           1
           1           1           1           1           1           1
           1           1
Nuclear charges                            R   N=          14
  6.00000000E+00  6.00000000E+00  6.00000000E+00  6.00000000E+00  1.00000000E+00
  1.00000000E+00  1.00000000E+00  1.00000000E+00  1.00000000E+00  1.00000000E+00
  1.00000000E+00  1.00000000E+00  1.00000000E+00  1.00000000E+00
Current cartesian coordinates              R   N=          42
  3.70569774E+00  2.27136419E-01  1.36485615E-04  1.07389144E+00 -9.71049131E-01
 -1.51266041E-04 -1.07405099E+00  9.71333243E-01 -1.66166937E-04 -3.70559417E+00
 -2.27290811E-01  1.66008896E-04  8.72209848E-01 -2.21486086E+00 -1.66797432E+00
  8.72054902E-01 -2.21560198E+00  1.66702732E+00 -8.72284915E-01  2.21575522E+00
  1.66716779E+00 -8.72441858E-01  2.21535949E+00 -1.66778550E+00 -5.20622893E+00
  1.21682440E+00  5.90561817E-05 -3.98902233E+00 -1.43023207E+00 -1.67970134E+00
 -3.98885096E+00 -1.42977560E+00  1.68038621E+00  3.99141820E+00  1.42488981E+00
  1.68339844E+00  5.20597091E+00 -1.21728126E+00 -5.42670609E-03  3.98751105E+00
  1.43414452E+00 -1.67706132E+00
Atom Types                                 C   N=          14
                                                            
                                                            
                                                
Int Atom Types                             I   N=          14
           0           0           0           0           0           0
           0           0           0           0           0           0
           0           0
Force Field                                I                0
MM charges                                 R   N=          14
  0.00000000E+00  0.00000000E+00  0.00000000E+00  0.00000000E+00  0.00000000E+00
  0.00000000E+00  0.00000000E+00  0.00000000E+00  0.00000000E+00  0.00000000E+00
  0.00000000E+00  0.00000000E+00  0.00000000E+00  0.00000000E+00
Integer atomic weights                     I   N=          14
          12          12          12          12           1           1
           1           1           1           1           1           1
           1           1
Real atomic weights                        R   N=          14
  1.20000000E+01  1.20000000E+01  1.20000000E+01  1.20000000E+01  1.00782504E+00
  1.00782504E+00  1.00782504E+00  1.00782504E+00  1.00782504E+00  1.00782504E+00
  1.00782504E+00  1.00782504E+00  1.00782504E+00  1.00782504E+00
Atom residue info                          I   N=          14
           0           0           0           0           0           0
           0           0           0           0           0           0
           0           0
Atom fragment info                         I   N=          14
           0           0           0           0           0           0
           0           0           0           0           0           0
           0           0
Atom residue num                           I   N=          14
           0           0           0           0           0           0
           0           0           0           0           0           0
           0           0
Nuclear spins                              I   N=          14
           0           0           0           0           1           1
           1           1           1           1           1           1
           1           1
Nuclear ZEff                               R   N=          14
 -3.60000000E+00 -3.60000000E+00 -3.60000000E+00 -3.60000000E+00 -1.00000000E+00
 -1.00000000E+00 -1.00000000E+00 -1.00000000E+00 -1.00000000E+00 -1.00000000E+00
 -1.00000000E+00 -1.00000000E+00 -1.00000000E+00 -1.00000000E+00
Nuclear QMom                               R   N=          14
  0.00000000E+00  0.00000000E+00  0.00000000E+00  0.00000000E+00  0.00000000E+00
  0.00000000E+00  0.00000000E+00  0.00000000E+00  0.00000000E+00  0.00000000E+00
  0.00000000E+00  0.00000000E+00  0.00000000E+00  0.00000000E+00
Nuclear GFac                               R   N=          14
  0.00000000E+00  0.00000000E+00  0.00000000E+00  0.00000000E+00  2.79284600E+00
  2.79284600E+00  2.79284600E+00  2.79284600E+00  2.79284600E+00  2.79284600E+00
  2.79284600E+00  2.79284600E+00  2.79284600E+00  2.79284600E+00
MicOpt                                     I   N=          14
          -1          -1          -1          -1          -1          -1
          -1          -1          -1          -1          -1          -1
          -1          -1
Constraint Structure                       R   N=          42
  3.70569774E+00  2.27136419E-01  1.36485615E-04  1.07389144E+00 -9.71049131E-01
 -1.51266041E-04 -1.07405099E+00  9.71333243E-01 -1.66166937E-04 -3.70559417E+00
 -2.27290811E-01  1.66008896E-04  8.72209848E-01 -2.21486086E+00 -1.66797432E+00
  8.72054902E-01 -2.21560198E+00  1.66702732E+00 -8.72284915E-01  2.21575522E+00
  1.66716779E+00 -8.72441858E-01  2.21535949E+00 -1.66778550E+00 -5.20622893E+00
  1.21682440E+00  5.90561817E-05 -3.98902233E+00 -1.43023207E+00 -1.67970134E+00
 -3.98885096E+00 -1.42977560E+00  1.68038621E+00  3.99141820E+00  1.42488981E+00
  1.68339844E+00  5.20597091E+00 -1.21728126E+00 -5.42670609E-03  3.98751105E+00
  1.43414452E+00 -1.67706132E+00
ONIOM Charges                              I   N=          16
           0           0           0           0           0           0
           0           0           0           0           0           0
           0           0           0           0
ONIOM Multiplicities                       I   N=          16
           1           0           0           0           0           0
           0           0           0           0           0           0
           0           0           0           0
Atom Layers                                I   N=          14
           0           0           0           0           0           0
           0           0           0           0           0           0
           0           0
Atom Modifiers                             I   N=          14
           0           0           0           0           0           0
           0           0           0           0           0           0
           0           0
Atom Modified Types                        C   N=          14
                                                            
                                                            
                                                
Int Atom Modified Types                    I   N=          14
           0           0           0           0           0           0
           0           0           0           0           0           0
           0           0
Link Atoms                                 I   N=          14
           0           0           0           0           0           0
           0           0           0           0           0           0
           0           0
Atom Modified MM Charges                   R   N=          14
  0.00000000E+00  0.00000000E+00  0.00000000E+00  0.00000000E+00  0.00000000E+00
  0.00000000E+00  0.00000000E+00  0.00000000E+00  0.00000000E+00  0.00000000E+00
  0.00000000E+00  0.00000000E+00  0.00000000E+00  0.00000000E+00
Link Distances                             R   N=          56
  0.00000000E+00  0.00000000E+00  0.00000000E+00  0.00000000E+00  0.00000000E+00
  0.00000000E+00  0.00000000E+00  0.00000000E+00  0.00000000E+00  0.00000000E+00
  0.00000000E+00  0.00000000E+00  0.00000000E+00  0.00000000E+00  0.00000000E+00
  0.00000000E+00  0.00000000E+00  0.00000000E+00  0.00000000E+00  0.00000000E+00
  0.00000000E+00  0.00000000E+00  0.00000000E+00  0.00000000E+00  0.00000000E+00
  0.00000000E+00  0.00000000E+00  0.00000000E+00  0.00000000E+00  0.00000000E+00
  0.00000000E+00  0.00000000E+00  0.00000000E+00  0.00000000E+00  0.00000000E+00
  0.00000000E+00  0.00000000E+00  0.00000000E+00  0.00000000E+00  0.00000000E+00
  0.00000000E+00  0.00000000E+00  0.00000000E+00  0.00000000E+00  0.00000000E+00
  0.00000000E+00  0.00000000E+00  0.00000000E+00  0.00000000E+00  0.00000000E+00
  0.00000000E+00  0.00000000E+00  0.00000000E+00  0.00000000E+00  0.00000000E+00
  0.00000000E+00
MxBond                                     I                4
NBond                                      I   N=          14
           4           4           4           4           1           1
           1           1           1           1           1           1
           1           1
IBond                                      I   N=          56
           2          12          13          14           1           3
           5           6           2           4           7           8
           3           9          10          11           2           0
           0           0           2           0           0           0
           3           0           0           0           3           0
           0           0           4           0           0           0
           4           0           0           0           4           0
           0           0           1           0           0           0
           1           0           0           0           1           0
           0           0
RBond                                      R   N=          56
  1.00000000E+00  1.00000000E+00  1.00000000E+00  1.00000000E+00  1.00000000E+00
  1.00000000E+00  1.00000000E+00  1.00000000E+00  1.00000000E+00  1.00000000E+00
  1.00000000E+00  1.00000000E+00  1.00000000E+00  1.00000000E+00  1.00000000E+00
  1.00000000E+00  1.00000000E+00  0.00000000E+00  0.00000000E+00  0.00000000E+00
  1.00000000E+00  0.00000000E+00  0.00000000E+00  0.00000000E+00  1.00000000E+00
  0.00000000E+00  0.00000000E+00  0.00000000E+00  1.00000000E+00  0.00000000E+00
  0.00000000E+00  0.00000000E+00  1.00000000E+00  0.00000000E+00  0.00000000E+00
  0.00000000E+00  1.00000000E+00  0.00000000E+00  0.00000000E+00  0.00000000E+00
  1.00000000E+00  0.00000000E+00  0.00000000E+00  0.00000000E+00  1.00000000E+00
  0.00000000E+00  0.00000000E+00  0.00000000E+00  1.00000000E+00  0.00000000E+00
  0.00000000E+00  0.00000000E+00  1.00000000E+00  0.00000000E+00  0.00000000E+00
  0.00000000E+00
Shell types                                I   N=          54
           0           0           0           1           1          -2
           0           0           0           1           1          -2
           0           0           0           1           1          -2
           0           0           0           1           1          -2
           0           0           1           0           0           1
           0           0           1           0           0           1
           0           0           1           0           0           1
           0           0           1           0           0           1
           0           0           1           0           0           1
Number of primitives per shell             I   N=          54
           7           7           1           3           1           1
           7           7           1           3           1           1
           7           7           1           3           1           1
           7           7           1           3           1           1
           3           1           1           3           1           1
           3           1           1           3           1           1
           3           1           1           3           1           1
           3           1           1           3           1           1
           3           1           1           3           1           1
Shell to atom map                          I   N=          54
           1           1           1           1           1           1
           2           2           2           2           2           2
           3           3           3           3           3           3
           4           4           4           4           4           4
           5           5           5           6           6           6
           7           7           7           8           8           8
           9           9           9          10          10          10
          11          11          11          12          12          12
          13          13          13          14          14          14
Primitive exponents                        R   N=         130
  6.66500000E+03  1.00000000E+03  2.28000000E+02  6.47100000E+01  2.10600000E+01
  7.49500000E+00  2.79700000E+00  6.66500000E+03  1.00000000E+03  6.47100000E+01
  2.10600000E+01  7.49500000E+00  2.79700000E+00  5.21500000E-01  1.59600000E-01
  9.43900000E+00  2.00200000E+00  5.45600000E-01  1.51700000E-01  5.50000000E-01
  6.66500000E+03  1.00000000E+03  2.28000000E+02  6.47100000E+01  2.10600000E+01
  7.49500000E+00  2.79700000E+00  6.66500000E+03  1.00000000E+03  6.47100000E+01
  2.10600000E+01  7.49500000E+00  2.79700000E+00  5.21500000E-01  1.59600000E-01
  9.43900000E+00  2.00200000E+00  5.45600000E-01  1.51700000E-01  5.50000000E-01
  6.66500000E+03  1.00000000E+03  2.28000000E+02  6.47100000E+01  2.10600000E+01
  7.49500000E+00  2.79700000E+00  6.66500000E+03  1.00000000E+03  6.47100000E+01
  2.10600000E+01  7.49500000E+00  2.79700000E+00  5.21500000E-01  1.59600000E-01
  9.43900000E+00  2.00200000E+00  5.45600000E-01  1.51700000E-01  5.50000000E-01
  6.66500000E+03  1.00000000E+03  2.28000000E+02  6.47100000E+01  2.10600000E+01
  7.49500000E+00  2.79700000E+00  6.66500000E+03  1.00000000E+03  6.47100000E+01
  2.10600000E+01  7.49500000E+00  2.79700000E+00  5.21500000E-01  1.59600000E-01
  9.43900000E+00  2.00200000E+00  5.45600000E-01  1.51700000E-01  5.50000000E-01
  1.30100000E+01  1.96200000E+00  4.44600000E-01  1.22000000E-01  7.27000000E-01
  1.30100000E+01  1.96200000E+00  4.44600000E-01  1.22000000E-01  7.27000000E-01
  1.30100000E+01  1.96200000E+00  4.44600000E-01  1.22000000E-01  7.27000000E-01
  1.30100000E+01  1.96200000E+00  4.44600000E-01  1.22000000E-01  7.27000000E-01
  1.30100000E+01  1.96200000E+00  4.44600000E-01  1.22000000E-01  7.27000000E-01
  1.30100000E+01  1.96200000E+00  4.44600000E-01  1.22000000E-01  7.27000000E-01
  1.30100000E+01  1.96200000E+00  4.44600000E-01  1.22000000E-01  7.27000000E-01
  1.30100000E+01  1.96200000E+00  4.44600000E-01  1.22000000E-01  7.27000000E-01
  1.30100000E+01  1.96200000E+00  4.44600000E-01  1.22000000E-01  7.27000000E-01
  1.30100000E+01  1.96200000E+00  4.44600000E-01  1.22000000E-01  7.27000000E-01
Contraction coefficients                   R   N=         130
  6.93516317E-04  5.34150243E-03  2.71366714E-02  1.01992385E-01  2.75508636E-01
  4.51086433E-01  2.87565745E-01  6.28313219E-07 -5.48480000E-05 -3.63137064E-03
 -1.17983699E-02 -1.10909885E-01 -1.34742247E-01  1.10175849E+00  1.00000000E+00
  5.69792516E-02  3.13207212E-01  7.60376742E-01  1.00000000E+00  1.00000000E+00
  6.93516317E-04  5.34150243E-03  2.71366714E-02  1.01992385E-01  2.75508636E-01
  4.51086433E-01  2.87565745E-01  6.28313219E-07 -5.48480000E-05 -3.63137064E-03
 -1.17983699E-02 -1.10909885E-01 -1.34742247E-01  1.10175849E+00  1.00000000E+00
  5.69792516E-02  3.13207212E-01  7.60376742E-01  1.00000000E+00  1.00000000E+00
  6.93516317E-04  5.34150243E-03  2.71366714E-02  1.01992385E-01  2.75508636E-01
  4.51086433E-01  2.87565745E-01  6.28313219E-07 -5.48480000E-05 -3.63137064E-03
 -1.17983699E-02 -1.10909885E-01 -1.34742247E-01  1.10175849E+00  1.00000000E+00
  5.69792516E-02  3.13207212E-01  7.60376742E-01  1.00000000E+00  1.00000000E+00
  6.93516317E-04  5.34150243E-03  2.71366714E-02  1.01992385E-01  2.75508636E-01
  4.51086433E-01  2.87565745E-01  6.28313219E-07 -5.48480000E-05 -3.63137064E-03
 -1.17983699E-02 -1.10909885E-01 -1.34742247E-01  1.10175849E+00  1.00000000E+00
  5.69792516E-02  3.13207212E-01  7.60376742E-01  1.00000000E+00  1.00000000E+00
  3.34987264E-02  2.34800801E-01  8.13682958E-01  1.00000000E+00  1.00000000E+00
  3.34987264E-02  2.34800801E-01  8.13682958E-01  1.00000000E+00  1.00000000E+00
  3.34987264E-02  2.34800801E-01  8.13682958E-01  1.00000000E+00  1.00000000E+00
  3.34987264E-02  2.34800801E-01  8.13682958E-01  1.00000000E+00  1.00000000E+00
  3.34987264E-02  2.34800801E-01  8.13682958E-01  1.00000000E+00  1.00000000E+00
  3.34987264E-02  2.34800801E-01  8.13682958E-01  1.00000000E+00  1.00000000E+00
  3.34987264E-02  2.34800801E-01  8.13682958E-01  1.00000000E+00  1.00000000E+00
  3.34987264E-02  2.34800801E-01  8.13682958E-01  1.00000000E+00  1.00000000E+00
  3.34987264E-02  2.34800801E-01  8.13682958E-01  1.00000000E+00  1.00000000E+00
  3.34987264E-02  2.34800801E-01  8.13682958E-01  1.00000000E+00  1.00000000E+00
Coordinates of each shell                  R   N=         162
  3.70569774E+00  2.27136419E-01  1.36485615E-04  3.70569774E+00  2.27136419E-01
  1.36485615E-04  3.70569774E+00  2.27136419E-01  1.36485615E-04  3.70569774E+00
  2.27136419E-01  1.36485615E-04  3.70569774E+00  2.27136419E-01  1.36485615E-04
  3.70569774E+00  2.27136419E-01  1.36485615E-04  1.07389144E+00 -9.71049131E-01
 -1.51266041E-04  1.07389144E+00 -9.71049131E-01 -1.51266041E-04  1.07389144E+00
 -9.71049131E-01 -1.51266041E-04  1.07389144E+00 -9.71049131E-01 -1.51266041E-04
  1.07389144E+00 -9.71049131E-01 -1.51266041E-04  1.07389144E+00 -9.71049131E-01
 -1.51266041E-04 -1.07405099E+00  9.71333243E-01 -1.66166937E-04 -1.07405099E+00
  9.71333243E-01 -1.66166937E-04 -1.07405099E+00  9.71333243E-01 -1.66166937E-04
 -1.07405099E+00  9.71333243E-01 -1.66166937E-04 -1.07405099E+00  9.71333243E-01
 -1.66166937E-04 -1.07405099E+00  9.71333243E-01 -1.66166937E-04 -3.70559417E+00
 -2.27290811E-01  1.66008896E-04 -3.70559417E+00 -2.27290811E-01  1.66008896E-04
 -3.70559417E+00 -2.27290811E-01  1.66008896E-04 -3.70559417E+00 -2.27290811E-01
  1.66008896E-04 -3.70559417E+00 -2.27290811E-01  1.66008896E-04 -3.70559417E+00
 -2.27290811E-01  1.66008896E-04  8.72209848E-01 -2.21486086E+00 -1.66797432E+00
  8.72209848E-01 -2.21486086E+00 -1.66797432E+00  8.72209848E-01 -2.21486086E+00
 -1.66797432E+00  8.72054902E-01 -2.21560198E+00  1.66702732E+00  8.72054902E-01
 -2.21560198E+00  1.66702732E+00  8.72054902E-01 -2.21560198E+00  1.66702732E+00
 -8.72284915E-01  2.21575522E+00  1.66716779E+00 -8.72284915E-01  2.21575522E+00
  1.66716779E+00 -8.72284915E-01  2.21575522E+00  1.66716779E+00 -8.72441858E-01
  2.21535949E+00 -1.66778550E+00 -8.72441858E-01  2.21535949E+00 -1.66778550E+00
 -8.72441858E-01  2.21535949E+00 -1.66778550E+00 -5.20622893E+00  1.21682440E+00
  5.90561817E-05 -5.20622893E+00  1.21682440E+00  5.90561817E-05 -5.20622893E+00
  1.21682440E+00  5.90561817E-05 -3.98902233E+00 -1.43023207E+00 -1.67970134E+00
 -3.98902233E+00 -1.43023207E+00 -1.67970134E+00 -3.98902233E+00 -1.43023207E+00
 -1.67970134E+00 -3.98885096E+00 -1.42977560E+00  1.68038621E+00 -3.98885096E+00
 -1.42977560E+00  1.68038621E+00 -3.98885096E+00 -1.42977560E+00  1.68038621E+00
  3.99141820E+00  1.42488981E+00  1.68339844E+00  3.99141820E+00  1.42488981E+00
  1.68339844E+00  3.99141820E+00  1.42488981E+00  1.68339844E+00  5.20597091E+00
 -1.21728126E+00 -5.42670609E-03  5.20597091E+00 -1.21728126E+00 -5.42670609E-03
  5.20597091E+00 -1.21728126E+00 -5.42670609E-03  3.98751105E+00  1.43414452E+00
 -1.67706132E+00  3.98751105E+00  1.43414452E+00 -1.67706132E+00  3.98751105E+00
  1.43414452E+00 -1.67706132E+00
Alpha Orbital Energies                     R   N=         106
 -1.01803051E+01 -1.01801368E+01 -1.01759333E+01 -1.01759254E+01 -7.90758920E-01
 -7.20674555E-01 -6.27106312E-01 -5.71994619E-01 -4.63532500E-01 -4.22552860E-01
 -4.16281916E-01 -4.06407925E-01 -3.65591464E-01 -3.46672832E-01 -3.32590914E-01
 -3.20695352E-01 -3.19389630E-01  6.10820518E-02  8.04425678E-02  9.54696257E-02
  1.00946785E-01  1.37587971E-01  1.40427893E-01  1.51212983E-01  1.53328410E-01
  1.60792340E-01  1.70178855E-01  2.26465695E-01  2.32805837E-01  2.49805053E-01
  4.02095103E-01  4.06147326E-01  4.09110233E-01  4.18325129E-01  4.50399270E-01
  5.07536623E-01  5.10080551E-01  5.83243937E-01  6.12203801E-01  6.34722520E-01
  6.43167910E-01  6.48235291E-01  6.52983419E-01  6.64186559E-01  6.69615906E-01
  6.69739925E-01  6.79558687E-01  6.99507691E-01  7.04489943E-01  7.24397991E-01
  7.40503854E-01  7.41954827E-01  8.97597149E-01  9.00341452E-01  9.60726720E-01
  1.07346507E+00  1.20363656E+00  1.22226160E+00  1.22382368E+00  1.22593890E+00
  1.28661144E+00  1.32683524E+00  1.42598703E+00  1.42632106E+00  1.43643796E+00
  1.49161541E+00  1.57392023E+00  1.60472130E+00  1.60821136E+00  1.62273154E+00
  1.62376880E+00  1.62471376E+00  1.64668769E+00  1.65803544E+00  1.69355012E+00
  1.70218610E+00  1.71062923E+00  1.71190771E+00  1.71264309E+00  1.74433557E+00
  1.74626388E+00  1.78157911E+00  1.87104183E+00  1.91636139E+00  1.91795666E+00
  1.95986207E+00  1.99349760E+00  2.09316799E+00  2.11714142E+00  2.13395731E+00
  2.18729084E+00  2.21644347E+00  2.21697762E+00  2.27216938E+00  2.28653123E+00
  2.31347477E+00  2.40431965E+00  2.41252229E+00  2.41729903E+00  2.46051445E+00
  2.48692007E+00  2.50740180E+00  2.58459114E+00  2.63374807E+00  2.70319661E+00
  2.71318277E+00
Alpha MO coefficients                      R   N=       11236
  1.28002719E-02 -2.19667861E-04  4.50726061E-03  4.23422728E-04  8.64289869E-05
 -2.98095628E-07 -1.70284778E-03 -5.36705685E-04 -2.33856211E-06  2.50030354E-04
 -4.85282494E-07 -8.69968329E-08 -5.46274075E-04 -6.50068369E-04  7.07811861E-01
  2.18305763E-02 -1.22935793E-02  4.62521686E-05 -8.28841405E-04 -1.76115514E-07
 -1.83068752E-03 -1.17549814E-03  1.65143244E-06  9.92546514E-04 -1.48666890E-07
 -4.14758946E-07 -4.98966682E-04  7.45905992E-04  7.01760697E-01  2.16363230E-02
 -1.21086174E-02 -4.77793519E-05  8.25172146E-04 -2.24571103E-08  1.84355593E-03
  1.14243845E-03 -3.07837645E-07  9.89786093E-04  5.79357149E-08  2.06385475E-07
 -4.95365521E-04  7.49458550E-04  1.26642570E-02 -2.23464545E-04  4.47252898E-03
 -4.23241318E-04 -8.55431871E-05  1.25801826E-08  1.68917377E-03  5.28615164E-04
  5.07748100E-08  2.46089575E-04  1.56666443E-07  2.74616316E-08 -5.43595769E-04
 -6.46570623E-04 -1.14081651E-03  1.76892774E-03 -1.93279064E-04 -6.77660132E-04
 -1.21938936E-03 -1.14194228E-03  1.76770374E-03 -1.93121629E-04 -6.78563068E-04
  1.21913079E-03 -1.13742366E-03  1.75667758E-03  1.92536934E-04  6.71852874E-04
  1.20933820E-03 -1.13754988E-03  1.75782154E-03  1.92557388E-04  6.71403211E-04
 -1.20932960E-03 -5.14719064E-04  1.16102759E-04 -1.71451622E-04  6.33631994E-05
 -2.64536766E-08 -3.89365825E-04 -3.94685009E-05 -3.22298286E-05  3.00506468E-05
 -7.42741075E-05 -3.89521385E-04 -3.94598581E-05 -3.22485309E-05  3.00525174E-05
  7.42462838E-05 -3.91636437E-04 -3.33218775E-05  3.13983008E-05 -2.98666780E-05
  7.40395704E-05 -5.18159295E-04  1.11712295E-04  1.72843776E-04 -6.36700331E-05
 -3.46314326E-07 -3.92868015E-04 -3.69157863E-05  3.10729877E-05 -2.92064403E-05
 -7.49180802E-05 -1.60371454E-02 -4.15588388E-04 -4.22792961E-03 -2.36621760E-05
 -1.16305338E-04 -5.07879213E-07  1.65004021E-03  9.55090931E-04  5.25920180E-06
 -4.40057647E-04  4.27318599E-08 -4.37091612E-07  2.90861561E-04  4.42823713E-04
 -7.01729613E-01 -2.25478683E-02  2.16283892E-02  1.59765358E-04  4.11260777E-04
  1.73478713E-07 -1.46009850E-03  4.01666233E-03 -2.11828493E-06 -3.17063737E-04
 -4.22990240E-07  2.48366481E-07  4.26089394E-04  4.10812953E-04  7.07781000E-01
  2.27345750E-02 -2.17327280E-02  1.59319441E-04  4.18267553E-04 -1.36422888E-07
 -1.44496824E-03  4.02659913E-03  7.82198897E-08  3.25496279E-04 -3.19724898E-08
  3.14844027E-08 -4.30595922E-04 -4.04331882E-04  1.61463359E-02  4.13888004E-04
  4.26575084E-03 -2.72980918E-05 -1.17130777E-04  3.85102264E-08  1.66391149E-03
  9.60278971E-04 -5.19752273E-07  4.42199760E-04  9.09571785E-08  2.87350836E-08
 -2.95665901E-04 -4.48301793E-04  4.63112620E-04 -1.24231693E-03  5.67437562E-05
  7.50042625E-04  1.15908133E-03  4.63934640E-04 -1.24052702E-03  5.71960102E-05
  7.50650836E-04 -1.15876573E-03 -4.73356058E-04  1.25665691E-03  5.87760374E-05
  7.56161830E-04  1.16926130E-03 -4.73250037E-04  1.25638339E-03  5.84946532E-05
  7.56039407E-04 -1.16951186E-03 -4.19209139E-04 -4.87343727E-04 -1.75696854E-04
  3.27289076E-05  3.85858745E-08 -3.40751509E-04  4.82647750E-04  1.22645990E-04
 -4.94904021E-05 -3.39116722E-05 -3.40717336E-04  4.82798835E-04  1.22637137E-04
 -4.94848322E-05  3.39380900E-05  3.37677649E-04 -4.85615140E-04  1.22966492E-04
 -4.96898474E-05 -3.36424777E-05  4.14886291E-04  4.88186544E-04 -1.74195308E-04
  3.23413608E-05 -2.78797425E-07  3.37346773E-04 -4.80234214E-04  1.22674529E-04
 -4.99184481E-05  3.28687791E-05  7.90114165E-01  2.48389489E-02 -1.63567313E-02
  5.79220589E-04  3.35529514E-04  1.49353849E-07  3.09805460E-03  5.21086019E-04
 -2.80081045E-06  3.14730024E-04 -1.77299365E-07  1.56667794E-07 -3.63609457E-04
 -4.77816434E-04 -1.75386098E-02 -4.28752112E-04  3.29591718E-03 -4.02984285E-04
 -2.06902330E-04 -7.80478483E-08  3.73513691E-03  7.17791348E-04  1.77169967E-06
  5.87331633E-04  7.46673879E-08  1.21117234E-07 -3.99256990E-04 -4.38385837E-04
  1.42316143E-02  2.08406248E-04 -2.55766956E-03 -3.94925978E-04 -1.66372984E-04
  2.68699695E-08  3.80540078E-03  7.91254584E-04 -1.69825829E-06 -5.01473247E-04
 -1.78118423E-07 -1.16573382E-07  2.85127375E-04  3.33440490E-04 -6.07393321E-01
 -1.92265726E-02  1.34687532E-02  4.46566933E-04  2.63035527E-04 -2.54709916E-08
  2.83386028E-03  5.42280832E-04 -5.64708508E-07 -2.50556090E-04 -3.14187963E-08
  5.66428052E-08  2.82539452E-04  3.92781096E-04 -1.80516062E-04  3.82799886E-04
 -1.17644178E-04 -1.28057774E-05  2.20710716E-05 -1.80403935E-04  3.81079748E-04
 -1.17656128E-04 -1.29035967E-05 -2.22707693E-05  7.21082594E-05 -3.99318044E-04
 -1.62632046E-04 -3.34602609E-05  3.88017117E-05  7.21347282E-05 -4.02700052E-04
 -1.62901254E-04 -3.32324062E-05 -3.90475651E-05  8.11271665E-04 -6.94674241E-04
  8.39213895E-04 -9.23059870E-04  1.09928947E-07  5.69494284E-04 -1.37933169E-03
  1.63187235E-05  6.77425303E-04  9.47273929E-04  5.69817008E-04 -1.37912294E-03
  1.62351796E-05  6.77262047E-04 -9.47492855E-04 -8.08201992E-04  1.79911604E-03
  3.92439256E-05  8.82936061E-04  1.24055256E-03 -1.10032291E-03  1.03774738E-03
  1.08733412E-03 -1.18745514E-03 -4.41962577E-06 -8.08361644E-04  1.79719913E-03
  3.69742785E-05  8.89737537E-04 -1.23595763E-03  6.07380396E-01  1.85823879E-02
 -9.09398242E-03  4.38906676E-04  2.40044273E-04  6.53098813E-08  6.24493328E-04
 -1.54021914E-04 -9.04905683E-07  2.07305542E-04 -7.27599239E-08 -3.61908355E-08
 -2.67817194E-04 -2.68969525E-04 -1.05779617E-02 -8.02190608E-04  2.44171226E-03
  2.16413982E-05 -1.30780864E-04  8.03489821E-10 -7.67248904E-04 -3.79449650E-04