FCHK created with reform_fchk from anthracene_pbe0_S1FC-f.fchk
Freq      TD RPBE1PBE                                                 6-31G(d)  
Number of atoms                            I               24
Charge                                     I                0
Multiplicity                               I                1
Atomic numbers                             I   N=          24
           6           6           6           6           6           6
           6           6           6           6           6           1
           6           6           6           1           1           1
           1           1           1           1           1           1
Nuclear charges                            R   N=          24
  6.00000000E+00  6.00000000E+00  6.00000000E+00  6.00000000E+00  6.00000000E+00
  6.00000000E+00  6.00000000E+00  6.00000000E+00  6.00000000E+00  6.00000000E+00
  6.00000000E+00  1.00000000E+00  6.00000000E+00  6.00000000E+00  6.00000000E+00
  1.00000000E+00  1.00000000E+00  1.00000000E+00  1.00000000E+00  1.00000000E+00
  1.00000000E+00  1.00000000E+00  1.00000000E+00  1.00000000E+00
Current cartesian coordinates              R   N=          72
 -4.22292117E-16  6.89655363E+00  1.34412629E+00 -2.85971625E-16  4.67027105E+00
  2.65208323E+00 -1.41168608E-16  2.30545832E+00  1.36004535E+00  2.53889102E-17
  2.30545832E+00 -1.36004535E+00  3.88148988E-17  4.67027105E+00 -2.65208323E+00
 -2.57684120E-16  6.89655363E+00 -1.34412629E+00  9.91750367E-33  9.71612941E-17
  2.64509124E+00  3.23930252E-16 -5.50699211E-16 -2.64509124E+00 -1.41168608E-16
 -2.30545832E+00 -1.36004535E+00 -1.41168608E-16 -2.30545832E+00  1.36004535E+00
 -2.85971625E-16 -4.67027105E+00  2.65208323E+00  2.85585840E-16 -4.66397071E+00
  4.70737205E+00 -4.22292117E-16 -6.89655363E+00  1.34412629E+00 -4.22292117E-16
 -6.89655363E+00 -1.34412629E+00 -2.85971625E-16 -4.67027105E+00 -2.65208323E+00
  1.76305319E-32  3.49087915E-16  4.70222821E+00 -5.31811892E-16  8.68514729E+00
  2.35278085E+00  2.85585840E-16  4.66397071E+00  4.70737205E+00  2.85585840E-16
  4.66397071E+00 -4.70737205E+00 -2.43679338E-16  8.68514729E+00 -2.35278085E+00
  5.75856873E-16 -8.02625831E-16 -4.70222821E+00 -5.31811892E-16 -8.68514729E+00
  2.35278085E+00 -5.31811892E-16 -8.68514729E+00 -2.35278085E+00  8.62072651E-16
 -4.66397071E+00 -4.70737205E+00
Integer atomic weights                     I   N=          72
          12          12          12          12          12          12
          12          12          12          12          12           1
          12          12          12           1           1           1
           1           1           1           1           1           1
           0           0           0           0           0           0
           0           0           0           0           0           0
           0           0           0           0           0           0
           0           0           0           0           0           0
           0           0           0           0           0           0
           0           0           0           0           0           0
           0           0           0           0           0           0
           0           0           0           0           0           0
Real atomic weights                        R   N=          72
  1.20000000E+01  1.20000000E+01  1.20000000E+01  1.20000000E+01  1.20000000E+01
  1.20000000E+01  1.20000000E+01  1.20000000E+01  1.20000000E+01  1.20000000E+01
  1.20000000E+01  1.00782504E+00  1.20000000E+01  1.20000000E+01  1.20000000E+01
  1.00782504E+00  1.00782504E+00  1.00782504E+00  1.00782504E+00  1.00782504E+00
  1.00782504E+00  1.00782504E+00  1.00782504E+00  1.00782504E+00  0.00000000E+00
  0.00000000E+00  0.00000000E+00  0.00000000E+00  0.00000000E+00  0.00000000E+00
  0.00000000E+00  0.00000000E+00  0.00000000E+00  0.00000000E+00  0.00000000E+00
  0.00000000E+00  0.00000000E+00  0.00000000E+00  0.00000000E+00  0.00000000E+00
  0.00000000E+00  0.00000000E+00  0.00000000E+00  0.00000000E+00  0.00000000E+00
  0.00000000E+00  0.00000000E+00  0.00000000E+00  0.00000000E+00  0.00000000E+00
  0.00000000E+00  0.00000000E+00  0.00000000E+00  0.00000000E+00  0.00000000E+00
  0.00000000E+00  0.00000000E+00  0.00000000E+00  0.00000000E+00  0.00000000E+00
  0.00000000E+00  0.00000000E+00  0.00000000E+00  0.00000000E+00  0.00000000E+00
  0.00000000E+00  0.00000000E+00  0.00000000E+00  0.00000000E+00  0.00000000E+00
  0.00000000E+00  0.00000000E+00
SCF Energy                                 R     -5.388908252715846E+02
CIS Energy                                 R     -5.387667904922791E+02
Total Energy                               R     -5.387667904922791E+02
Cartesian Gradient                         R   N=          72
 -1.10765522E-14 -2.88652440E-02  3.63137456E-02 -4.31816284E-16  3.63692017E-02
 -6.18663767E-03 -6.40927029E-16 -2.23344772E-02  1.56535334E-03 -7.47490891E-15
 -2.23344772E-02 -1.56535334E-03 -3.72304251E-15  3.63692017E-02  6.18663767E-03
  5.82603104E-15 -2.88652440E-02 -3.63137456E-02  5.49143857E-15  4.08562141E-14
 -6.20139810E-03  7.36122089E-15 -2.57571776E-14  6.20139810E-03 -9.07249817E-16
  2.23344772E-02 -1.56535334E-03  7.61657567E-16  2.23344772E-02  1.56535334E-03
 -4.66619098E-15 -3.63692017E-02 -6.18663767E-03  5.22859726E-15 -3.37374115E-04
  7.80311689E-05  1.96936799E-15  2.88652440E-02  3.63137456E-02 -9.38223615E-15
  2.88652440E-02 -3.63137456E-02 -2.39350220E-15 -3.63692017E-02  6.18663767E-03
 -4.09788137E-15  7.77156117E-16  7.64573253E-05 -1.87415705E-15 -1.30327863E-04
  6.46930180E-04  9.42228827E-15  3.37374115E-04  7.80311689E-05 -9.29386770E-16
  3.37374115E-04 -7.80311690E-05  2.20393774E-16 -1.30327863E-04 -6.46930180E-04
  4.66840248E-15  9.71444723E-16 -7.64573253E-05 -2.82620381E-15  1.30327863E-04
  6.46930180E-04 -1.46861508E-15  1.30327863E-04 -6.46930180E-04  1.09432684E-14
 -3.37374115E-04 -7.80311689E-05
Cartesian Force Constants                  R   N=        2628
  1.11739320E-01  2.19091575E-13  7.83157178E-01 -2.43832951E-14 -7.63327818E-03
  6.46776899E-01 -4.26646384E-02 -1.44823959E-14 -1.82689880E-13  1.12051652E-01
 -6.28794314E-14 -3.45684109E-01  1.09423855E-01  5.42308275E-14  7.08632779E-01
 -4.35812350E-13  1.63080284E-01 -1.88465121E-01  6.90939951E-13 -7.36961106E-02
  7.33376360E-01  5.08785833E-03  2.35923401E-13  6.22258549E-14 -6.00091411E-02
  1.54873288E-13  1.16036850E-13  1.38200754E-01  2.82509069E-13 -5.41209094E-02
  8.62120350E-03 -2.86628780E-13 -2.32766334E-01 -8.77985358E-02  2.63532948E-13
  7.08445129E-01 -9.28353141E-14 -8.12266457E-03  3.93084521E-02  1.31049512E-13
 -6.95121560E-02 -1.72673324E-01 -9.47283497E-15 -2.35151151E-02  6.43479975E-01
 -2.89136114E-03  2.17786152E-13  9.16587999E-14  3.54148476E-03 -6.40580410E-13
 -5.03846077E-13 -6.54356411E-02 -1.08949642E-13 -7.77248405E-14  1.38200754E-01
 -1.85819101E-13  1.36858596E-02  1.14032362E-02  1.01450541E-13 -7.45147859E-03
 -3.04805846E-02  1.08949642E-13 -9.73616459E-02  3.16404075E-03 -2.63530068E-13
  7.08445129E-01 -2.10911546E-13  1.62112325E-02 -2.76990289E-02  2.59951503E-13
 -4.29681030E-02 -1.42290503E-02 -7.77248405E-14 -3.16404075E-03 -2.57048789E-01
 -9.41095611E-15  2.35151151E-02  6.43479975E-01  7.12466952E-03 -2.23884934E-13
  2.71235131E-13 -8.14128194E-03  1.99666260E-13  1.94027131E-13  3.54148476E-03
 -1.01450542E-13  2.59951498E-13 -6.00091411E-02  2.86639532E-13  1.31035715E-13
  1.12051652E-01 -2.79965308E-13  1.31402314E-02 -5.63090069E-02 -1.99666260E-13
 -2.32988642E-02  3.31106181E-03  6.40580407E-13 -7.45147859E-03  4.29681030E-02
 -1.54864775E-13 -2.32766334E-01  6.95121560E-02 -5.42218024E-14  7.08632779E-01
 -9.77628154E-14 -2.71641278E-02 -3.35579675E-02  1.94027131E-13 -3.31106181E-03
  3.67541582E-03 -5.03846081E-13  3.04805846E-02 -1.42290503E-02  1.16023053E-13
  8.77985358E-02 -1.72673324E-01  6.91016041E-13  7.36961106E-02  7.33376360E-01
 -6.10156066E-02 -8.36472079E-14  4.68646146E-14  7.12466952E-03  2.79965308E-13
 -9.77628157E-14 -2.89136114E-03  1.85819101E-13 -2.10911545E-13  5.08785833E-03
 -2.82510125E-13 -9.28311233E-14 -4.26646384E-02  6.28660308E-14 -4.35830205E-13
  1.11739320E-01  8.36472060E-14 -1.21232087E-01  3.03345720E-02  2.23884936E-13
  1.31402314E-02  2.71641278E-02 -2.17786151E-13  1.36858596E-02 -1.62112325E-02
 -2.35922406E-13 -5.41209094E-02  8.12266457E-03  1.44624243E-14 -3.45684109E-01
 -1.63080284E-01 -2.19090640E-13  7.83157178E-01  4.68646146E-14 -3.03345720E-02
 -2.90767343E-01  2.71235131E-13  5.63090069E-02 -3.35579675E-02  9.16588015E-14
 -1.14032362E-02 -2.76990289E-02  6.22300457E-14 -8.62120350E-03  3.93084521E-02
 -1.82707735E-13 -1.09423855E-01 -1.88465121E-01 -2.43177719E-14  7.63327818E-03
  6.46776899E-01  5.51013461E-03  2.93374240E-12 -5.60947106E-12  5.82943941E-03
 -2.40349882E-11  2.14086817E-12 -4.82175611E-02  9.48845373E-12  2.56542460E-12
  1.74765784E-03 -1.29843455E-11 -3.37785078E-12  5.25854908E-03  1.82879258E-11
  1.42088005E-11 -1.27433205E-03 -1.17121333E-11 -1.82600045E-11  1.08785080E-01
  1.45387224E-11  3.72901690E-03 -9.78252659E-03  6.87226197E-12 -6.48994203E-02
  6.49016177E-03  1.42296512E-11 -2.60671409E-01  9.64931462E-02  5.39837813E-11
 -5.70146796E-03  3.83368020E-02 -1.16538437E-12  2.49391770E-02 -2.08337350E-03
  1.28917973E-11 -1.72393597E-02 -4.28460010E-03 -5.62706547E-11  7.00612374E-01
  3.11143387E-13 -3.17438903E-03 -3.95504520E-03 -4.14793591E-13 -1.15638102E-02
  1.82394556E-02  3.49809651E-13  1.23371074E-01 -1.77677517E-01 -2.59366706E-13
  3.46864655E-02 -2.36172898E-02 -2.25935249E-14 -7.42976140E-03 -8.83419471E-03
  1.43351058E-14  1.66629884E-03  3.08921103E-03 -3.86530914E-15 -1.78638154E-12
  7.19590081E-01 -1.27433205E-03  1.17121333E-11 -1.82600045E-11  5.25854908E-03
 -1.82879258E-11  1.42088005E-11  1.74765784E-03  1.29843455E-11 -3.37785078E-12
 -4.82175611E-02 -9.48846883E-12  2.56540875E-12  5.82943941E-03  2.40349896E-11
  2.14086969E-12  5.51013461E-03 -2.93374201E-12 -5.60947222E-12 -6.52902175E-03
 -2.98011201E-11  8.30771028E-14  1.08785080E-01 -1.28917973E-11 -1.72393597E-02
  4.28460010E-03  1.16538437E-12  2.49391770E-02  2.08337350E-03 -5.39837813E-11
 -5.70146796E-03 -3.83368020E-02 -1.42296630E-11 -2.60671409E-01 -9.64931462E-02
 -6.87226276E-12 -6.48994203E-02 -6.49016177E-03 -1.45387212E-11  3.72901690E-03
  9.78252659E-03  2.98011201E-11 -4.62238494E-03 -9.09622544E-12  5.62706547E-11
  7.00612374E-01  1.43351056E-14 -1.66629884E-03  3.08921103E-03 -2.25935264E-14
  7.42976140E-03 -8.83419471E-03 -2.59366708E-13 -3.46864655E-02 -2.36172898E-02
  3.49793797E-13 -1.23371074E-01 -1.77677517E-01 -4.14792071E-13  1.15638102E-02
  1.82394556E-02  3.11142228E-13  3.17438903E-03 -3.95504520E-03  8.30771028E-14
  9.09622544E-12  3.24658702E-03 -3.79050710E-15  1.78638154E-12  7.19590081E-01
 -2.01709270E-04  2.19892774E-13 -4.77496627E-14 -1.51187219E-03 -7.23400288E-14
  2.59400374E-13  1.17013732E-03 -1.95456050E-13 -4.53496189E-13  1.59100515E-03
  2.21148066E-13  4.66237798E-13  4.18908070E-03 -2.78332427E-13 -3.43527542E-13
 -5.43183591E-04  4.02203258E-13  4.61514011E-13  1.74765784E-03  5.39837785E-11
  1.69300696E-13 -4.82175611E-02 -1.42296583E-11 -4.01066925E-14  1.38200754E-01
  5.31663380E-13  1.00959439E-02  1.42043577E-03 -8.14511187E-13 -1.54168794E-02
 -1.00278917E-03  1.95457743E-13  1.49986936E-02  1.54231637E-02  2.21147165E-13
 -7.73599110E-02 -7.35713640E-03  2.12058468E-14  1.86866798E-02 -8.54839994E-03
 -1.73024262E-13 -9.37889023E-03 -4.07639831E-03 -1.29843481E-11 -5.70146796E-03
 -3.46864655E-02 -9.48845918E-12 -2.60671409E-01  1.23371074E-01 -2.63463113E-13
  7.08445129E-01  2.91808014E-14  1.12670421E-03 -2.78143701E-03  2.03417170E-13
 -4.20593758E-03 -2.52143016E-03  4.53498078E-13  1.54231637E-02 -1.32324302E-02
 -4.66234472E-13  7.35713640E-03  2.87682112E-02  9.65044041E-14 -1.14521253E-02
 -3.69404830E-04 -1.01358120E-13  9.45797788E-04  5.20617325E-03  3.37784688E-12
 -3.83368020E-02 -2.36172898E-02 -2.56542662E-12  9.64931462E-02 -1.77677517E-01
  9.46995520E-15 -2.35151151E-02  6.43479975E-01 -5.43183591E-04 -4.02203201E-13
  4.61513658E-13  4.18908070E-03  2.78331725E-13 -3.43527264E-13  1.59100515E-03
 -2.21147614E-13  4.66236134E-13  1.17013732E-03  1.95455105E-13 -4.53497071E-13
 -1.51187219E-03  7.23402870E-14  2.59400311E-13 -2.01709270E-04 -2.19892843E-13
 -4.77498222E-14 -4.82175611E-02  1.42296642E-11 -4.00987660E-14  1.74765784E-03
 -5.39837762E-11  1.69299142E-13 -6.54356411E-02  1.08949448E-13  7.77131076E-14
  1.38200754E-01  1.73024012E-13 -9.37889023E-03  4.07639831E-03 -2.12063703E-14
  1.86866798E-02  8.54839994E-03 -2.21147614E-13 -7.73599110E-02  7.35713640E-03
 -1.95458687E-13  1.49986936E-02 -1.54231637E-02  8.14511249E-13 -1.54168794E-02
  1.00278917E-03 -5.31663468E-13  1.00959439E-02 -1.42043577E-03  9.48846674E-12
 -2.60671409E-01 -1.23371074E-01  1.29843502E-11 -5.70146796E-03  3.46864655E-02
 -1.08949448E-13 -9.73616459E-02  3.16404075E-03  2.63463113E-13  7.08445129E-01
 -1.01358473E-13 -9.45797788E-04  5.20617325E-03  9.65046826E-14  1.14521253E-02
 -3.69404830E-04 -4.66236137E-13 -7.35713640E-03  2.87682112E-02  4.53497196E-13
 -1.54231637E-02 -1.32324302E-02  2.03417108E-13  4.20593758E-03 -2.52143016E-03
  2.91806420E-14 -1.12670421E-03 -2.78143701E-03 -2.56541869E-12 -9.64931462E-02
 -1.77677517E-01  3.37784532E-12  3.83368020E-02 -2.36172898E-02  7.77131076E-14
 -3.16404075E-03 -2.57048789E-01  9.46995520E-15  2.35151151E-02  6.43479975E-01
 -3.55518913E-05  1.64783245E-13 -3.17435282E-14  3.40878664E-04 -2.98194022E-14
  3.68820791E-14  4.18908070E-03 -2.12063712E-14 -9.65046810E-14 -1.51187219E-03
 -8.14509423E-13 -2.03417746E-13 -3.18946272E-04 -2.01838049E-13 -2.13990759E-13
 -5.36388152E-05  6.97191716E-14  8.22086300E-14  5.82943941E-03  6.87226630E-12
 -2.25101804E-13  5.25854908E-03  1.16538291E-12  1.28217681E-15  3.54148476E-03
  1.01452410E-13 -2.59952586E-13 -6.00091411E-02 -2.86607623E-13 -1.31058025E-13
  1.12051652E-01  7.46365442E-14  1.27612423E-02 -1.21685993E-02 -2.98194022E-14
 -1.87753702E-02  2.19739213E-03  2.78331724E-13  1.86866798E-02 -1.14521253E-02
 -7.23380691E-14 -1.54168794E-02  4.20593758E-03  2.01837039E-13  3.54297397E-03
 -4.38561649E-03 -1.05645239E-13  2.98260159E-03  8.22592695E-03 -2.40349839E-11
 -6.48994203E-02  1.15638101E-02 -1.82879279E-11  2.49391770E-02 -7.42976142E-03
 -6.40577775E-13 -7.45147859E-03  4.29681030E-02  1.54894445E-13 -2.32766334E-01
  6.95121560E-02  5.41577674E-14  7.08632779E-01 -1.15241709E-13  2.45301849E-03
 -4.76531961E-03 -3.68820795E-14 -2.19739213E-03  3.34597916E-03  3.43527264E-13
 -8.54839994E-03 -3.69404830E-04 -2.59400558E-13  1.00278917E-03 -2.52143016E-03
  2.13991153E-13 -4.38561649E-03 -1.48612624E-03 -4.80333729E-14  5.07838873E-03
  4.24896675E-03 -2.14086778E-12 -6.49016177E-03  1.82394556E-02 -1.42088021E-11
 -2.08337350E-03 -8.83419472E-03  5.03844991E-13  3.04805846E-02 -1.42290503E-02
 -1.16047602E-13  8.77985358E-02 -1.72673324E-01 -6.90948976E-13  7.36961106E-02
  7.33376360E-01  7.27126314E-05  2.38441639E-14 -1.03368908E-14 -5.52649668E-05
 -7.92983788E-14  4.73245863E-15 -4.45532793E-04  6.23715470E-15 -3.50619695E-14
  5.34907705E-04 -1.05674809E-13 -1.00791784E-14 -1.95150652E-05  2.62593360E-14
 -5.80441594E-14  5.66094989E-05 -1.99379113E-14 -1.80881435E-15 -3.28924522E-03
 -1.61432535E-12 -1.27013482E-13  7.47724362E-04  1.26888810E-12 -2.67449272E-14
  5.97245777E-03  3.38015013E-14 -6.49667865E-14  3.12076425E-03 -8.39236907E-14
 -1.16207505E-14 -3.36146236E-02 -4.45962604E-14 -7.96257633E-14  2.17547105E-02
 -2.11102788E-14  5.49314061E-05 -1.24467446E-04 -1.02080427E-13 -9.29908899E-05
  1.26908529E-04 -9.48786286E-14  1.35908566E-04 -4.03353189E-04  1.98624894E-13
  1.51467731E-04 -4.03075180E-05 -2.99735700E-13  8.88536240E-05 -1.71191899E-04
  3.94875837E-13 -1.58603964E-05  7.20703592E-05  3.30998348E-12  1.55604062E-03
  1.95563054E-03 -5.26650595E-12  6.71271186E-04  1.41204210E-03 -4.27333050E-15
 -5.24311384E-03  1.25311982E-03 -1.09121454E-13  3.45309353E-03  2.76478117E-02
  3.44516590E-13 -5.94992091E-02  3.06331704E-04 -1.84281225E-14  5.92729740E-02
  1.36659736E-13  8.67502668E-06  6.76313076E-05 -1.33569984E-13  1.46075300E-05
 -1.26284411E-04  1.42794192E-13  4.25227057E-04  1.96890676E-04  3.14617896E-13
 -1.09924005E-04  1.81258666E-04  4.10058946E-13  8.53827209E-05  1.07816238E-04
 -4.53891909E-13 -7.24967677E-05 -4.40283680E-05  9.78359862E-12 -1.80447463E-03
  7.04893192E-04  9.38212680E-12 -6.76365528E-04 -6.64082621E-04 -6.20467638E-14
  2.82546906E-03  8.74919121E-04 -5.23435549E-14 -1.80798791E-03 -1.23439353E-02
 -1.80736777E-13 -1.13618611E-03 -3.42271141E-01 -2.18065525E-14  1.05909145E-03
  3.63705936E-01  4.71747159E-05  4.40562030E-14 -2.82194001E-13 -3.55518913E-05
  7.46365459E-14  1.15241708E-13 -5.43183591E-04  1.73024013E-13  1.01358474E-13
 -2.01709270E-04  5.31662033E-13 -2.91808199E-14 -5.36388152E-05  1.05645874E-13
  4.80332779E-14  2.96567633E-04  2.63668974E-14  1.09091761E-13  5.51013461E-03
  1.45387226E-11  2.33436231E-13 -1.27433205E-03 -1.28917968E-11 -1.59941463E-13
 -2.89136114E-03 -1.85819802E-13  2.10910025E-13  5.08785833E-03  2.82516320E-13
  9.28343194E-14 -4.26646384E-02 -6.28423222E-14  4.35832322E-13  4.08190626E-03
 -1.04347249E-13  3.13264168E-14  1.11739320E-01  4.40562030E-14 -1.29576346E-02
  1.02657267E-02  1.64783246E-13  1.27612423E-02 -2.45301849E-03 -4.02203200E-13
 -9.37889023E-03  9.45797788E-04  2.19891444E-13  1.00959439E-02 -1.12670421E-03
 -6.97189215E-14  2.98260159E-03  5.07838873E-03 -2.63675298E-14 -5.36086563E-03
 -1.08212692E-02  2.93374251E-12  3.72901690E-03  3.17438901E-03  1.17121345E-11
 -1.72393597E-02  1.66629884E-03  2.17785157E-13  1.36858596E-02 -1.62112325E-02
  2.35930652E-13 -5.41209094E-02  8.12266457E-03 -1.44452867E-14 -3.45684109E-01
 -1.63080284E-01 -1.37036872E-13  4.59707224E-03  2.97465530E-03  2.19009350E-13
  7.83157178E-01  2.82194003E-13 -1.02657267E-02  1.45257310E-02  3.17435263E-14
  1.21685993E-02 -4.76531961E-03 -4.61513657E-13 -4.07639831E-03  5.20617325E-03
  4.77496802E-14 -1.42043577E-03 -2.78143701E-03 -8.22091105E-14  8.22592695E-03
  4.24896675E-03 -1.09091971E-13 -1.08212692E-02 -1.22416634E-02  5.60947046E-12
  9.78252659E-03 -3.95504521E-03  1.82600053E-11 -4.28460010E-03  3.08921104E-03
 -9.16603191E-14 -1.14032362E-02 -2.76990289E-02 -6.22247991E-14 -8.62120350E-03
  3.93084521E-02  1.82703280E-13 -1.09423855E-01 -1.88465121E-01 -6.84035272E-14
 -2.97086918E-02 -1.21103027E-02  2.43823603E-14  7.63327818E-03  6.46776899E-01
  2.96567633E-04 -2.63675603E-14  1.09092528E-13 -5.36388152E-05 -1.05645371E-13
  4.80330149E-14 -2.01709270E-04 -5.31662119E-13 -2.91806634E-14 -5.43183591E-04
 -1.73023764E-13  1.01358825E-13 -3.55518913E-05 -7.46372901E-14  1.15241418E-13
  4.71747159E-05 -4.40555752E-14 -2.82193114E-13 -1.27433205E-03  1.28917966E-11
 -1.59941730E-13  5.51013461E-03 -1.45387232E-11  2.33435652E-13  5.08785833E-03
 -2.82516320E-13  9.28343194E-14 -2.89136114E-03  1.85819802E-13  2.10910025E-13
  7.12466952E-03  2.79961859E-13  9.77603223E-14  4.82202572E-03 -1.97913443E-13
  1.25620434E-13 -6.10156066E-02 -8.36453495E-14 -4.68786809E-14  1.11739320E-01
  2.63668674E-14 -5.36086563E-03  1.08212692E-02  6.97192325E-14  2.98260159E-03
 -5.07838873E-03 -2.19891513E-13  1.00959439E-02  1.12670421E-03  4.02203142E-13
 -9.37889023E-03 -9.45797788E-04 -1.64783095E-13  1.27612423E-02  2.45301849E-03
 -4.40568324E-14 -1.29576346E-02 -1.02657267E-02 -1.17121344E-11 -1.72393597E-02
 -1.66629884E-03 -2.93374270E-12  3.72901690E-03 -3.17438901E-03 -2.35930652E-13
 -5.41209094E-02 -8.12266457E-03 -2.17785157E-13  1.36858596E-02  1.62112325E-02
  2.23883271E-13  1.31402314E-02 -2.71641278E-02  2.89732789E-14 -4.99740435E-03
 -3.08388077E-03  8.36453495E-14 -1.21232087E-01 -3.03345720E-02 -2.19009350E-13
  7.83157178E-01 -1.09091203E-13  1.08212692E-02 -1.22416634E-02 -8.22093736E-14
 -8.22592695E-03  4.24896675E-03  4.77498367E-14  1.42043577E-03 -2.78143701E-03
 -4.61513306E-13  4.07639831E-03  5.20617325E-03  3.17432366E-14 -1.21685993E-02
 -4.76531961E-03  2.82194889E-13  1.02657267E-02  1.45257310E-02  1.82600051E-11
  4.28460010E-03  3.08921104E-03  5.60946988E-12 -9.78252659E-03 -3.95504521E-03
 -6.22247991E-14  8.62120350E-03  3.93084521E-02 -9.16603191E-14  1.14032362E-02
 -2.76990289E-02 -2.71237622E-13 -5.63090069E-02 -3.35579675E-02 -9.68374442E-16
 -1.73032364E-03  1.01151865E-03 -4.68786809E-14  3.03345720E-02 -2.90767343E-01
  2.43823603E-14 -7.63327818E-03  6.46776899E-01 -5.36388152E-05 -6.97188607E-14
  8.22083662E-14 -3.18946272E-04  2.01837780E-13 -2.13990687E-13 -1.51187219E-03
  8.14509484E-13 -2.03417685E-13  4.18908070E-03  2.12068946E-14 -9.65049607E-14
  3.40878664E-04  2.98195369E-14  3.68822631E-14 -3.55518913E-05 -1.64783394E-13
 -3.17438177E-14  5.25854908E-03 -1.16538304E-12  1.28304053E-15  5.82943941E-03
 -6.87226590E-12 -2.25101043E-13 -6.00091411E-02  2.86607623E-13 -1.31058025E-13
  3.54148476E-03 -1.01452410E-13 -2.59952586E-13 -8.14128194E-03  1.99666463E-13
 -1.94026407E-13  2.33838833E-04  3.44469406E-13  1.01540932E-15  7.12466952E-03
 -2.23883271E-13 -2.71237622E-13 -4.26646384E-02  1.44452867E-14  1.82703280E-13
  1.12051652E-01  1.05645743E-13  2.98260159E-03 -8.22592695E-03 -2.01837307E-13
  3.54297397E-03  4.38561649E-03  7.23383259E-14 -1.54168794E-02 -4.20593758E-03
 -2.78331023E-13  1.86866798E-02  1.14521253E-02  2.98192678E-14 -1.87753702E-02
 -2.19739213E-03 -7.46357981E-14  1.27612423E-02  1.21685993E-02  1.82879274E-11
  2.49391770E-02  7.42976142E-03  2.40349832E-11 -6.48994203E-02 -1.15638101E-02
 -1.54894445E-13 -2.32766334E-01 -6.95121560E-02  6.40577775E-13 -7.45147859E-03
 -4.29681030E-02 -1.99666463E-13 -2.32988642E-02 -3.31106181E-03 -4.58047227E-14
 -6.83449539E-04  9.14094006E-05 -2.79961859E-13  1.31402314E-02  5.63090069E-02
  6.28423222E-14 -3.45684109E-01  1.09423855E-01 -5.41577674E-14  7.08632779E-01
 -4.80336368E-14 -5.07838873E-03  4.24896675E-03  2.13991224E-13  4.38561649E-03
 -1.48612624E-03 -2.59400496E-13 -1.00278917E-03 -2.52143016E-03  3.43526984E-13
  8.54839994E-03 -3.69404830E-04 -3.68818954E-14  2.19739213E-03  3.34597916E-03
 -1.15241999E-13 -2.45301849E-03 -4.76531961E-03 -1.42088013E-11  2.08337350E-03
 -8.83419472E-03 -2.14086702E-12  6.49016177E-03  1.82394556E-02 -1.16047602E-13
 -8.77985358E-02 -1.72673324E-01  5.03844991E-13 -3.04805846E-02 -1.42290503E-02
 -1.94026407E-13  3.31106181E-03  3.67541582E-03 -1.18815214E-14  3.11531794E-04
  3.68705103E-04  9.77603223E-14  2.71641278E-02 -3.35579675E-02  4.35832322E-13
  1.63080284E-01 -1.88465121E-01 -6.90948976E-13 -7.36961106E-02  7.33376360E-01
 -5.39269199E-04  2.35172956E-12 -8.98365132E-12 -2.63709626E-03 -1.03634101E-11
 -4.24654406E-12  4.55381173E-03 -1.77505424E-11 -2.11523845E-11  4.68710798E-03
  2.34947287E-11 -8.30173093E-12  3.62720480E-04 -5.01658037E-12 -1.61117264E-12
  5.49954660E-04  1.17562730E-11 -2.10001515E-11 -3.37241850E-02  2.98012913E-12
 -3.28521522E-14  6.26898572E-04 -9.04915540E-11  3.04132412E-14  4.68710798E-03
  2.34947279E-11  8.30173063E-12  4.55381173E-03 -1.77505423E-11  2.11523863E-11
 -2.63709626E-03 -1.03634104E-11  4.24654417E-12  7.64013881E-04  3.50040134E-12
  9.66073290E-12 -5.39269199E-04  2.35172952E-12  8.98365130E-12  5.49954660E-04
  1.17562730E-11  2.10001514E-11  3.62720480E-04 -5.01658031E-12  1.61117248E-12
  1.98540699E-02  1.50283847E-11  2.32856942E-05 -3.82648409E-04  6.54306717E-12
  1.64581588E-03  1.76891390E-03  1.46891410E-11  3.61046179E-03  2.83275152E-02
  5.36812465E-11 -5.08519790E-03  1.15131855E-03 -1.52239975E-12  5.33811493E-04
  1.53264893E-03  1.25533993E-11  2.11735157E-04  3.72462206E-05 -5.46741960E-11
 -5.93569639E-02 -3.36346453E-12 -1.79935424E-10 -6.72023065E-04 -4.50083695E-12
  5.36812459E-11 -5.08519790E-03 -1.15131855E-03  1.46891410E-11  3.61046179E-03
 -2.83275152E-02  6.54306691E-12  1.64581588E-03 -1.76891390E-03 -1.54206096E-12
 -3.73622543E-04  9.83918616E-04  1.50283847E-11  2.32856942E-05  3.82648409E-04
  1.25533993E-11  2.11735157E-04 -3.72462206E-05 -1.52239983E-12  5.33811493E-04
 -1.53264893E-03  1.34898223E-11  5.95908513E-02  3.87104072E-13  2.97804780E-04
  2.01279050E-04 -3.68616594E-13 -1.63892837E-03  9.60167471E-04  3.34177215E-13
 -2.20638459E-03 -1.30170832E-02 -5.85424521E-14  2.75695172E-03  1.05526736E-03
  2.16755958E-13 -6.97676202E-04 -8.25139583E-04 -1.41893602E-13 -7.19960660E-05
  2.13969850E-04 -1.79265008E-13  2.69334196E-12 -3.39165800E-01 -2.43985121E-14
  7.66106156E-11  3.34677639E-04 -2.23767929E-13 -2.75695171E-03  1.05526735E-03
  2.06740479E-13  2.20638457E-03 -1.30170832E-02  1.83593023E-13  1.63892837E-03
  9.60167480E-04  3.67921724E-14 -9.80119841E-04  4.01208419E-04  3.15429625E-14
 -2.97804792E-04  2.01279026E-04 -5.69589214E-14  7.19960667E-05  2.13969858E-04
 -7.17333934E-14  6.97676202E-04 -8.25139571E-04 -5.81244662E-14  1.88827689E-12
  3.61300756E-01 -3.27081949E-02 -1.51881991E-14  4.58600311E-14  3.25889134E-03
  3.18187233E-14 -4.88964080E-14  5.59750650E-03  3.33685905E-14 -6.66857733E-14
 -1.44458602E-03  2.98922522E-14  3.21795359E-15  6.83205623E-03 -4.39715816E-15
  3.19779049E-14  2.76941072E-03  3.03064033E-14 -3.81729245E-14 -3.27113703E-05
  9.64056874E-13  1.59303655E-16 -8.30943346E-04 -9.45753889E-13 -1.61829771E-14
  2.17676880E-04  7.23850463E-14  3.13481042E-14  4.59419538E-04  2.91555906E-14
  5.39966379E-15 -1.31731588E-05 -4.54939708E-15  1.87830049E-14  2.29766804E-05
  1.62877281E-14 -1.87961721E-14 -1.46978968E-04 -6.67206521E-15  3.95862970E-14
 -8.32188199E-05 -5.68774284E-14 -4.39648511E-14  4.76134977E-05  6.02303815E-14
  1.99900810E-14 -1.21907627E-04  1.03501994E-12 -3.77141595E-14  2.26687360E-02
 -8.32049750E-14 -2.77338161E-01 -1.21533915E-01 -1.98990639E-13 -1.96839538E-02
 -1.66459295E-02  7.79616861E-14 -2.23855878E-03  4.48678771E-03  9.16330358E-14
 -5.65686223E-06  6.77148075E-04  7.62927223E-14  1.27442964E-03  6.33817331E-04
  1.61562587E-13  3.99460546E-03  2.48953104E-03  5.15747368E-12 -5.46908089E-04
 -1.38950777E-03  1.55759100E-12  1.82725747E-04 -6.08200038E-05 -1.14714382E-13
 -1.13610356E-04  2.58082296E-05 -3.83255755E-14 -3.52461988E-04  3.69787683E-04
 -1.09900846E-13 -7.69257200E-05 -8.03017780E-05  4.83854295E-14  1.47808767E-05
  1.29565602E-05 -2.05691034E-13  2.43238779E-05 -5.59930065E-05  2.12497601E-14
 -5.07595819E-05  1.37691778E-05  7.25855289E-14  7.05726299E-07 -2.13710484E-05
  6.61841337E-12 -7.84058290E-06  5.77433407E-05 -7.04581356E-14  2.93197409E-01
 -1.56832974E-13 -1.22709815E-01 -1.28327463E-01  7.72532270E-14  1.61970313E-02
  1.16632777E-02  2.10419003E-14  2.94256116E-03 -1.37485909E-03  8.10086499E-14
  3.09286869E-04 -2.46667972E-04  1.15169854E-13  1.95358289E-03 -6.00868643E-03
  4.79438293E-14 -2.93265630E-02 -9.78104123E-03  3.35481199E-12  6.28206847E-04
  6.17139811E-04  2.53957392E-12  1.84031633E-04  9.06848786E-05 -2.57767527E-13
 -2.78025078E-04 -1.32220595E-04 -2.53152104E-14  3.82912783E-04 -1.10717482E-04
 -3.84952557E-14 -2.23746077E-04  6.07567666E-05 -2.68988330E-14  2.48576797E-06
 -7.97144971E-07 -1.52076065E-13  3.87679533E-04  1.09183516E-04  9.44251682E-14
  5.20483460E-05 -2.84448356E-04  1.41623869E-13 -1.65449132E-04  1.10656614E-04
  3.58113824E-12 -1.65991064E-05 -1.94088158E-05 -2.83346454E-14  1.31047862E-01
  1.32412635E-01  4.08190626E-03 -1.37036871E-13  6.84035256E-14 -3.36146236E-02
 -4.45962584E-14  7.96257638E-14  3.12076425E-03 -8.39236921E-14  1.16207503E-14
  5.97245777E-03  3.38027020E-14  6.49666275E-14  2.33838833E-04 -4.58046158E-14
  1.18815678E-14  4.82202572E-03  2.89746700E-14  9.67929184E-16 -3.28924522E-03
 -1.61432565E-12  9.05300320E-14  7.47724362E-04  1.26888818E-12  3.98896009E-14
  5.34907705E-04 -1.05674803E-13  1.00791578E-14 -4.45532793E-04  6.23708349E-15
  3.50619201E-14 -5.52649668E-05 -7.92983742E-14 -4.73244309E-15 -3.40969569E-05
 -3.18660947E-15  4.36895589E-14  7.27126314E-05  2.38441661E-14  1.03368755E-14
  5.66094989E-05 -1.99379064E-14  1.80880668E-15 -1.95150652E-05  2.62593299E-14
  5.80441665E-14  7.64013881E-04 -1.54206089E-12 -8.64012711E-14 -3.05855580E-03
 -4.77987427E-14 -8.42638785E-15  2.17547105E-02 -1.04347248E-13  4.59707224E-03
  2.97086918E-02  3.44516592E-13 -5.94992091E-02 -3.06331704E-04 -1.09121455E-13
  3.45309353E-03 -2.76478117E-02 -4.27203408E-15 -5.24311384E-03 -1.25311982E-03
  3.44469499E-13 -6.83449539E-04 -3.11531794E-04 -1.97912134E-13 -4.99740435E-03
  1.73032364E-03  3.30998318E-12  1.55604062E-03 -1.95563054E-03 -5.26650611E-12
  6.71271186E-04 -1.41204210E-03  1.98624896E-13  1.51467731E-04  4.03075180E-05
 -9.48786998E-14  1.35908566E-04  4.03353189E-04 -1.02080422E-13 -9.29908899E-05
 -1.26908529E-04 -3.18660947E-15 -3.96628899E-05  1.37239218E-05 -2.11102767E-14
  5.49314061E-05  1.24467446E-04  3.94875833E-13 -1.58603964E-05 -7.20703592E-05
 -2.99735690E-13  8.88536240E-05  1.71191899E-04  3.50040141E-12 -3.73622543E-04
  9.80119841E-04  1.83558368E-15  1.02198272E-03 -3.22150440E-04 -1.84327171E-14
  5.92729740E-02 -3.13264155E-14 -2.97465530E-03 -1.21103027E-02  1.80736777E-13
  1.13618611E-03 -3.42271141E-01  5.23435547E-14  1.80798791E-03 -1.23439353E-02
  6.20467973E-14 -2.82546906E-03  8.74919121E-04 -1.01538990E-15 -9.14094006E-05
  3.68705103E-04 -1.25621045E-13  3.08388077E-03  1.01151865E-03 -9.78359873E-12
  1.80447463E-03  7.04893196E-04 -9.38212701E-12  6.76365528E-04 -6.64082618E-04
 -3.14617917E-13  1.09924005E-04  1.81258666E-04 -1.42794140E-13 -4.25227057E-04
  1.96890676E-04  1.33569986E-13 -1.46075300E-05 -1.26284411E-04 -4.36895586E-14
 -1.37239218E-05  3.40694002E-05 -1.36659735E-13 -8.67502668E-06  6.76313076E-05
  4.53891903E-13  7.24967677E-05 -4.40283680E-05 -4.10058939E-13 -8.53827209E-05