FCHK created with reform_fchk from anthracene_pbe0_S0-f.fchk
Freq      RPBE1PBE                                                    6-31G(d)  
Number of atoms                            I               24
Charge                                     I                0
Multiplicity                               I                1
Atomic numbers                             I   N=          24
           6           6           6           6           6           6
           6           6           6           6           6           1
           6           6           6           1           1           1
           1           1           1           1           1           1
Nuclear charges                            R   N=          24
  6.00000000E+00  6.00000000E+00  6.00000000E+00  6.00000000E+00  6.00000000E+00
  6.00000000E+00  6.00000000E+00  6.00000000E+00  6.00000000E+00  6.00000000E+00
  6.00000000E+00  1.00000000E+00  6.00000000E+00  6.00000000E+00  6.00000000E+00
  1.00000000E+00  1.00000000E+00  1.00000000E+00  1.00000000E+00  1.00000000E+00
  1.00000000E+00  1.00000000E+00  1.00000000E+00  1.00000000E+00
Current cartesian coordinates              R   N=          72
  0.00000000E+00  6.89655373E+00  1.34412652E+00 -4.93038066E-32  4.67027111E+00
  2.65208342E+00 -2.46519033E-32  2.30545842E+00  1.36004548E+00  1.66557534E-16
  2.30545842E+00 -1.36004548E+00  3.24786547E-16  4.67027111E+00 -2.65208342E+00
  1.64608024E-16  6.89655373E+00 -1.34412652E+00 -9.91750395E-33  0.00000000E+00
  2.64509132E+00  3.23930262E-16  2.94687987E-32 -2.64509132E+00 -2.82337227E-16
 -2.30545842E+00 -1.36004548E+00 -2.82337227E-16 -2.30545842E+00  1.36004548E+00
 -5.71943257E-16 -4.67027111E+00  2.65208342E+00 -9.86076132E-32 -4.66397069E+00
  4.70737203E+00 -8.44584245E-16 -6.89655373E+00  1.34412652E+00 -8.44584245E-16
 -6.89655373E+00 -1.34412652E+00 -5.71943257E-16 -4.67027111E+00 -2.65208342E+00
 -1.76305322E-32  0.00000000E+00  4.70222829E+00  0.00000000E+00  8.68514737E+00
  2.35278111E+00  5.71171678E-16  4.66397069E+00  4.70737203E+00  5.71171678E-16
  4.66397069E+00 -4.70737203E+00  2.88132585E-16  8.68514737E+00 -2.35278111E+00
  5.75856882E-16  6.33465488E-32 -4.70222829E+00 -1.06362379E-15 -8.68514737E+00
  2.35278111E+00 -1.06362379E-15 -8.68514737E+00 -2.35278111E+00  5.76486809E-16
 -4.66397069E+00 -4.70737203E+00
Integer atomic weights                     I   N=          72
          12          12          12          12          12          12
          12          12          12          12          12           1
          12          12          12           1           1           1
           1           1           1           1           1           1
           0           0           0           0           0           0
           0           0           0           0           0           0
           0           0           0           0           0           0
           0           0           0           0           0           0
           0           0           0           0           0           0
           0           0           0           0           0           0
           0           0           0           0           0           0
           0           0           0           0           0           0
Real atomic weights                        R   N=          72
  1.20000000E+01  1.20000000E+01  1.20000000E+01  1.20000000E+01  1.20000000E+01
  1.20000000E+01  1.20000000E+01  1.20000000E+01  1.20000000E+01  1.20000000E+01
  1.20000000E+01  1.00782504E+00  1.20000000E+01  1.20000000E+01  1.20000000E+01
  1.00782504E+00  1.00782504E+00  1.00782504E+00  1.00782504E+00  1.00782504E+00
  1.00782504E+00  1.00782504E+00  1.00782504E+00  1.00782504E+00  0.00000000E+00
  0.00000000E+00  0.00000000E+00  0.00000000E+00  0.00000000E+00  0.00000000E+00
  0.00000000E+00  0.00000000E+00  0.00000000E+00  0.00000000E+00  0.00000000E+00
  0.00000000E+00  0.00000000E+00  0.00000000E+00  0.00000000E+00  0.00000000E+00
  0.00000000E+00  0.00000000E+00  0.00000000E+00  0.00000000E+00  0.00000000E+00
  0.00000000E+00  0.00000000E+00  0.00000000E+00  0.00000000E+00  0.00000000E+00
  0.00000000E+00  0.00000000E+00  0.00000000E+00  0.00000000E+00  0.00000000E+00
  0.00000000E+00  0.00000000E+00  0.00000000E+00  0.00000000E+00  0.00000000E+00
  0.00000000E+00  0.00000000E+00  0.00000000E+00  0.00000000E+00  0.00000000E+00
  0.00000000E+00  0.00000000E+00  0.00000000E+00  0.00000000E+00  0.00000000E+00
  0.00000000E+00  0.00000000E+00
SCF Energy                                 R     -5.388908252714733E+02
Total Energy                               R     -5.388908252714733E+02
Cartesian Gradient                         R   N=          72
 -3.10921285E-15 -3.60496930E-05  3.33484844E-05 -3.09837616E-15  1.59208367E-05
 -3.67913042E-05 -3.62284048E-15 -3.23901691E-06  5.83505376E-05 -4.72937360E-15
 -3.23901698E-06 -5.83505376E-05  1.62428007E-15  1.59208366E-05  3.67913042E-05
 -1.29433909E-15 -3.60496931E-05 -3.33484844E-05  2.50056242E-15  4.04879682E-14
 -6.16357776E-05  7.00794211E-15 -4.06229217E-14  6.16357774E-05 -7.44485482E-16
  3.23901704E-06 -5.83505376E-05  3.13633758E-16  3.23901697E-06  5.83505376E-05
 -1.54831104E-15 -1.59208366E-05 -3.67913043E-05  4.99892493E-15  3.59287777E-06
  5.15483475E-06 -2.36673341E-15  3.60496931E-05  3.33484844E-05 -5.45325938E-15
  3.60496930E-05 -3.33484843E-05 -6.23104772E-15 -1.59208367E-05  3.67913044E-05
 -5.62039116E-16  1.28293537E-15  1.23813212E-05 -7.60974397E-17 -1.10267449E-06
 -5.79632241E-06  5.04214167E-15 -3.59287777E-06  5.15483474E-06  2.04054874E-15
 -3.59287776E-06 -5.15483475E-06  9.59898066E-16 -1.10267449E-06  5.79632240E-06
  1.84707820E-15  1.87393503E-15 -1.23813212E-05 -2.07831248E-15  1.10267450E-06
 -5.79632242E-06 -1.95126607E-15  1.10267449E-06  5.79632242E-06  1.05306844E-14
  3.59287777E-06 -5.15483473E-06
Cartesian Force Constants                  R   N=        2628
  1.29430983E-01  3.30406045E-12  7.89366287E-01  1.12268164E-11 -6.13367430E-03
  6.69229090E-01 -5.76743693E-02 -1.97500322E-12 -7.15080484E-12  1.31353152E-01
 -6.32332216E-12 -3.54104013E-01  1.02969472E-01  4.99129073E-12  7.12504134E-01
  6.88265584E-12  1.59274859E-01 -2.04490565E-01 -1.04262628E-11 -6.58047979E-02
  7.50799848E-01  6.46344820E-03 -9.82659931E-12  5.01986258E-12 -6.54325240E-02
  2.66239635E-13 -2.34974106E-12  1.57071161E-01  1.40229015E-11 -6.21610110E-02
  3.14238574E-02 -6.09625310E-12 -2.25828580E-01 -9.86958534E-02  1.49902943E-11
  7.26762147E-01 -8.42847451E-13  1.43839768E-03  3.35676269E-02 -2.65077741E-12
 -7.93601564E-02 -1.69440752E-01  6.03953330E-12 -1.66642226E-02  6.52100771E-01
 -7.86972853E-03  6.19978467E-12 -1.64422883E-11  5.53577367E-03  4.94688884E-12
 -8.66605055E-12 -7.09898416E-02 -7.53454977E-12  5.86977951E-12  1.57071161E-01
  9.19194197E-12 -1.65419851E-02  3.56112503E-02  5.67174341E-13  3.27036328E-02
 -2.94519655E-02  7.53452516E-12 -1.38433503E-01  8.58122970E-03 -1.49896746E-11
  7.26762147E-01 -6.60675004E-12  1.20965431E-02 -1.72095802E-02  1.01206793E-12
 -3.30822337E-02 -1.87774413E-02  5.86819315E-12 -8.58122970E-03 -2.60769729E-01
  6.03974484E-12  1.66642226E-02  6.52100771E-01  8.18107608E-03 -1.54185395E-12
  3.03920049E-12 -4.52571587E-03  5.50686556E-12 -1.56536411E-11  5.53577367E-03
 -5.67097182E-13  1.01184840E-12 -6.54325240E-02  6.09669282E-12 -2.65091785E-12
  1.31353152E-01  3.37176550E-12  2.79431516E-02 -6.64288543E-02 -5.50704539E-12
 -4.89164405E-02  4.41143921E-03 -4.94711736E-12  3.27036328E-02  3.30822337E-02
 -2.64785658E-13 -2.25828580E-01  7.93601564E-02 -4.99030915E-12  7.12504134E-01
  9.40200626E-12 -2.75732769E-02 -3.14372941E-02 -1.56534702E-11 -4.41143921E-03
 -3.79351573E-04 -8.66602108E-12  2.94519655E-02 -1.87774413E-02 -2.35054167E-12
  9.86958534E-02 -1.69440752E-01 -1.04216897E-11  6.58047979E-02  7.50799848E-01
 -6.10106231E-02  9.08172657E-12 -3.36867217E-12  8.18107608E-03 -3.37199665E-12
  9.40198821E-12 -7.86972853E-03 -9.19188704E-12 -6.60686882E-12  6.46344820E-03
 -1.40228428E-11 -8.42796720E-13 -5.76743693E-02  6.32272171E-12  6.88251515E-12
  1.29430983E-01 -9.08156040E-12 -1.23648081E-01  3.12932828E-02  1.54187636E-12
  2.79431516E-02  2.75732769E-02 -6.19970645E-12 -1.65419851E-02 -1.20965431E-02
  9.82676674E-12 -6.21610110E-02 -1.43839768E-03  1.97336882E-12 -3.54104013E-01
 -1.59274859E-01 -3.30386232E-12  7.89366287E-01 -3.36971593E-12 -3.12932828E-02
 -2.97590270E-01  3.03960911E-12  6.64288543E-02 -3.14372941E-02 -1.64420528E-11
 -3.56112503E-02 -1.72095802E-02  5.02011121E-12 -3.14238574E-02  3.35676269E-02
 -7.15148078E-12 -1.02969472E-01 -2.04490565E-01  1.12263547E-11  6.13367430E-03
  6.69229090E-01  4.81108315E-03  4.72769735E-12  5.75077545E-12  4.01978456E-03
 -1.72247999E-12  1.94984235E-11 -6.18322261E-02 -1.84067060E-11 -2.86621372E-13
  5.90788086E-03  6.38855875E-12  8.13097854E-13  4.09797126E-03  8.77028474E-12
  1.76582006E-11 -4.20023123E-04 -9.41866429E-12  1.43108300E-11  1.30608532E-01
 -2.81330451E-12  1.49039640E-02 -2.90336697E-02  6.84375747E-12 -7.31520304E-02
  1.01663046E-02  6.67539585E-13 -2.67782995E-01  8.96196420E-02 -1.80539565E-11
  3.68504888E-02  4.82657609E-02  1.04316006E-11 -1.63815202E-02 -1.52942224E-03
 -7.57595762E-12  8.96289567E-03  2.12959067E-02  6.87264913E-12  7.05007007E-01
 -2.72858471E-12 -7.50872521E-03  5.69668107E-04  5.67858111E-12 -7.64178069E-03
  1.62217817E-02  9.16107899E-12  1.21308187E-01 -1.84397041E-01 -5.56444781E-12
  2.77196747E-02 -2.30204310E-02  9.75124301E-12 -1.08932489E-03 -5.46527961E-03
 -8.67094688E-12 -9.88439057E-04 -3.32170507E-03 -2.16889588E-12  1.58570908E-10
  7.37087788E-01 -4.20023123E-04  9.41866393E-12  1.43106563E-11  4.09797126E-03
 -8.77046334E-12  1.76581131E-11  5.90788086E-03 -6.38873730E-12  8.12802585E-13
 -6.18322261E-02  1.84059522E-11 -2.86863854E-13  4.01978456E-03  1.72223607E-12
  1.94985517E-11  4.81108315E-03 -4.72770702E-12  5.75092434E-12 -3.31640528E-03
  1.72727189E-11 -1.03472735E-11  1.30608532E-01  7.57629148E-12  8.96289567E-03
 -2.12959067E-02 -1.04311899E-11 -1.63815202E-02  1.52942224E-03  1.80545653E-11
  3.68504888E-02 -4.82657609E-02 -6.68595559E-13 -2.67782995E-01 -8.96196420E-02
 -6.84323660E-12 -7.31520304E-02 -1.01663046E-02  2.81365227E-12  1.49039640E-02
  2.90336697E-02 -1.72721198E-11 -5.51396569E-02 -5.31290096E-10 -6.88113112E-12
  7.05007007E-01 -8.67111212E-12  9.88439057E-04 -3.32170507E-03  9.75105070E-12
  1.08932489E-03 -5.46527961E-03 -5.56484934E-12 -2.77196747E-02 -2.30204310E-02
  9.15966677E-12 -1.21308187E-01 -1.84397041E-01  5.67838920E-12  7.64178069E-03
  1.62217817E-02 -2.72875252E-12  7.50872521E-03  5.69668107E-04 -1.03472944E-11
  5.31297663E-10 -1.95793149E-03 -2.16157539E-12 -1.58593945E-10  7.37087788E-01
  2.96395494E-04 -4.75066167E-13 -1.05359171E-11 -7.83073719E-04  4.07953550E-13
 -7.65309334E-12 -5.08313282E-03  1.67336504E-11 -9.34542218E-12  4.05456555E-03
 -7.67428104E-12 -3.08475330E-12  7.60119931E-03  1.70809340E-12 -5.66848575E-12
  2.53984440E-04  3.46329742E-12 -1.97168457E-12  5.90788077E-03 -3.72852758E-11
 -1.52433101E-11 -6.18322262E-02 -1.12743960E-11  9.66152216E-12  1.57071161E-01
  2.44702190E-12 -6.38423525E-03  1.30579597E-02  9.41792581E-12  1.09182342E-02
  1.30365734E-03 -1.67339523E-11 -2.22738210E-02  2.38725931E-02 -7.67477244E-12
 -7.30860891E-02 -1.40526240E-02  6.52628856E-12  1.97492732E-02 -6.52979054E-03
 -9.04065874E-12 -9.35361422E-03 -1.47649848E-02  7.98707396E-12  3.68504898E-02
 -2.77196749E-02  1.66366876E-11 -2.67782994E-01  1.21308187E-01 -1.49944789E-11
  7.26762147E-01 -4.29160914E-12  5.78676101E-03 -1.02945460E-02 -9.96975926E-12
 -1.17244836E-02 -1.33852210E-03  9.34557069E-12  2.38725931E-02 -1.79600485E-02
  3.08509425E-12  1.40526240E-02  3.28355999E-02 -1.32721850E-11 -1.70636949E-02
 -1.45788779E-03  1.37517171E-11  5.64227040E-03  1.16781062E-02  6.21002413E-12
 -4.82657603E-02 -2.30204314E-02 -6.07002367E-12  8.96196413E-02 -1.84397041E-01
 -6.03708856E-12 -1.66642226E-02  6.52100771E-01  2.53984440E-04 -3.46326121E-12
 -1.97180931E-12  7.60119931E-03 -1.70817669E-12 -5.66854491E-12  4.05456555E-03
  7.67409766E-12 -3.08482322E-12 -5.08313282E-03 -1.67336371E-11 -9.34535918E-12
 -7.83073719E-04 -4.08058164E-13 -7.65304591E-12  2.96395494E-04  4.75098602E-13
 -1.05357926E-11 -6.18322262E-02  1.12768143E-11  9.66264659E-12  5.90788077E-03
  3.72861182E-11 -1.52439835E-11 -7.09898416E-02  7.53421296E-12 -5.87082683E-12
  1.57071161E-01  9.04045717E-12 -9.35361422E-03  1.47649848E-02 -6.52647010E-12
  1.97492732E-02  6.52979054E-03  7.67390748E-12 -7.30860891E-02  1.40526240E-02
  1.67335005E-11 -2.22738210E-02 -2.38725931E-02 -9.41812020E-12  1.09182342E-02
 -1.30365734E-03 -2.44720193E-12 -6.38423525E-03 -1.30579597E-02 -1.66266286E-11
 -2.67782994E-01 -1.21308187E-01 -7.98748534E-12  3.68504898E-02  2.77196749E-02
 -7.53459144E-12 -1.38433503E-01  8.58122970E-03  1.49865838E-11  7.26762147E-01
  1.37514564E-11 -5.64227040E-03  1.16781062E-02 -1.32725302E-11  1.70636949E-02
 -1.45788779E-03  3.08452476E-12 -1.40526240E-02  3.28355999E-02  9.34523845E-12
 -2.38725931E-02 -1.79600485E-02 -9.97004087E-12  1.17244836E-02 -1.33852210E-03
 -4.29184914E-12 -5.78676101E-03 -1.02945460E-02 -6.06488183E-12 -8.96196413E-02
 -1.84397041E-01  6.20972443E-12  4.82657603E-02 -2.30204314E-02 -5.87147375E-12
 -8.58122970E-03 -2.60769729E-01 -6.03509060E-12  1.66642226E-02  6.52100771E-01
 -6.80491472E-04  3.01109849E-12  7.47194848E-12  6.04737922E-04  4.06438963E-12
 -6.22608286E-13  7.60119931E-03 -6.52639629E-12  1.32723207E-11 -7.83073719E-04
  9.41808374E-12  9.96991383E-12 -6.73619100E-04 -4.44578050E-14  6.10148294E-12
  1.87932548E-04  3.94036682E-13  4.05381746E-12  4.01978460E-03  1.37049215E-11
  1.55263287E-12  4.09797127E-03 -2.32668703E-11  1.04034522E-11  5.53577367E-03
  5.66956899E-13 -1.01171224E-12 -6.54325240E-02 -6.09534363E-12  2.64990220E-12
  1.31353152E-01 -1.11518132E-12  4.38825119E-03 -8.42675568E-03  4.06436168E-12
 -1.10215414E-02 -5.36342991E-04 -1.70816168E-12  1.97492732E-02 -1.70636949E-02
  4.07940252E-13  1.09182342E-02  1.17244836E-02  4.43862432E-14 -5.78537757E-03
  5.86841920E-04  6.39384165E-13  3.21277412E-03  7.16612090E-03 -3.63656209E-12
 -7.31520315E-02  7.64178052E-03 -1.94729159E-12 -1.63815239E-02 -1.08932508E-03
  4.94676717E-12  3.27036328E-02  3.30822337E-02  2.69565410E-13 -2.25828580E-01
  7.93601564E-02  4.98781008E-12  7.12504134E-01  2.20089551E-14 -8.67199441E-04
  5.79272879E-04  6.22607036E-13  5.36342991E-04  1.50646159E-03  5.66855682E-12
 -6.52979054E-03 -1.45788779E-03  7.65312384E-12 -1.30365734E-03 -1.33852210E-03
 -6.10143483E-12  5.86841920E-04 -1.40697479E-04  5.68394629E-12 -3.77358962E-04
 -6.64133620E-04 -2.10240435E-11 -1.01663039E-02  1.62217816E-02 -1.29999271E-11
 -1.52942138E-03 -5.46527949E-03  8.66619023E-12  2.94519655E-02 -1.87774413E-02
  2.34806635E-12  9.86958534E-02 -1.69440752E-01  1.04216615E-11  6.58047979E-02
  7.50799848E-01  6.59690947E-06  1.79722256E-12  9.27233178E-14  1.07529650E-04
 -1.31931728E-12  1.27688665E-12 -1.21919602E-04  1.82137483E-12 -5.10998136E-12
 -1.61508823E-04 -4.50154204E-12 -2.37804196E-12  1.66175725E-05 -2.91387895E-12
 -3.85853010E-12 -2.21874495E-05  1.25420202E-12 -1.96479906E-12 -2.72651851E-03
 -3.19342471E-12 -5.28822910E-12  1.95782704E-04  7.65645352E-12 -4.61376138E-12
  4.30281296E-03 -2.40102287E-12 -4.53168672E-12  2.98693560E-03  4.96193754E-12
  3.81092837E-12 -3.55757569E-02  4.60863969E-12 -8.72865355E-13  2.46909379E-02
  1.29919416E-12  4.74813277E-05  8.17413700E-07 -1.20723304E-12 -5.95194046E-05
  1.36108487E-05 -8.99042011E-13  1.35846225E-04 -5.15303953E-04 -8.22255067E-16
  2.63078181E-04  9.65155235E-05 -5.10836694E-13 -5.02085824E-05 -7.56511230E-05
 -8.21536107E-13 -3.36770491E-05  6.19119711E-05  1.15093468E-12  1.68027052E-03
  1.64774524E-03  1.46449845E-12  4.57029779E-04  1.52322033E-03 -1.58857447E-12
 -4.91096733E-03  1.05998559E-03  1.68707786E-12  3.41507566E-03  2.80399210E-02
 -5.96268411E-13 -5.91871635E-02  7.41879396E-04 -2.01928484E-12  5.88675275E-02
  5.57901744E-13  5.37521992E-05 -1.05056131E-04 -2.48823938E-13 -8.75786490E-05
 -1.09823753E-04  5.21054961E-12  4.04141939E-04  1.85318297E-04 -3.62144902E-12
  3.94632482E-05  1.80693467E-04  3.58828325E-12 -5.21420430E-05  1.32357241E-04
 -3.13325442E-12  1.17471663E-04  3.96075307E-05 -7.37049126E-13 -1.83749618E-03
  8.54151473E-04  1.15251439E-12 -7.29498230E-04 -7.44044857E-04 -2.54578634E-12
  2.85446625E-03  9.41754747E-04  4.99758703E-13 -2.08363221E-03 -1.25261162E-02
  5.13365827E-12 -1.88118238E-04 -3.42573349E-01 -7.99717594E-13  3.82066804E-04
  3.63715814E-01  9.13703004E-05  1.68658541E-13 -2.13434139E-12 -6.80491472E-04
 -1.11516805E-12 -2.20033407E-14  2.53984440E-04  9.04050893E-12 -1.37516089E-11
  2.96395494E-04  2.44715800E-12  4.29174763E-12  1.87932548E-04 -6.39452605E-13
 -5.68390182E-12 -1.40243557E-04  5.42977306E-12  3.45337979E-12  4.81108317E-03
 -8.35486346E-12  4.31942754E-12 -4.20023087E-04  4.43096895E-12 -2.68223831E-12
 -7.86972853E-03  9.19190492E-12  6.60693167E-12  6.46344820E-03  1.40229035E-11
  8.42578263E-13 -5.76743693E-02 -6.32312481E-12 -6.88262350E-12  3.72127413E-03
  1.32525692E-13 -3.71274718E-12  1.29430983E-01  1.68592004E-13 -1.89052196E-03
  4.09089269E-03  3.01102006E-12  4.38825119E-03  8.67199441E-04 -3.46335760E-12
 -9.35361422E-03  5.64227040E-03 -4.75153457E-13 -6.38423525E-03 -5.78676101E-03
 -3.94070546E-13  3.21277412E-03 -3.77358962E-04 -5.42980814E-12 -1.99308671E-03
 -3.31001779E-03  9.27340490E-12  1.49039659E-02  7.50872556E-03 -1.86712529E-12
  8.96289819E-03 -9.88439168E-04  6.19955833E-12 -1.65419851E-02 -1.20965431E-02
 -9.82674697E-12 -6.21610110E-02 -1.43839768E-03 -1.97298406E-12 -3.54104013E-01
 -1.59274859E-01 -5.55426179E-12  4.55291954E-03  3.03672193E-03  3.30256473E-12
  7.89366287E-01  2.13429533E-12 -4.09089269E-03  6.95767847E-03 -7.47200381E-12
  8.42675568E-03  5.79272879E-04  1.97174145E-12 -1.47649848E-02  1.16781062E-02
  1.05358489E-11 -1.30579597E-02 -1.02945460E-02 -4.05377923E-12  7.16612090E-03
 -6.64133620E-04 -3.45334397E-12 -3.31001779E-03 -7.17980748E-03 -6.24819355E-12
  2.90336699E-02  5.69668425E-04 -1.21563907E-11  2.12959081E-02 -3.32170523E-03
  1.64421970E-11 -3.56112503E-02 -1.72095802E-02 -5.02003444E-12 -3.14238574E-02
  3.35676269E-02  7.15182952E-12 -1.02969472E-01 -2.04490565E-01  7.74928643E-13
 -2.93716861E-02 -1.18228311E-02 -1.12242977E-11  6.13367430E-03  6.69229090E-01
 -1.40243557E-04 -5.42973963E-12  3.45329962E-12  1.87932548E-04  6.39397190E-13
 -5.68393226E-12  2.96395494E-04 -2.44715591E-12  4.29171014E-12  2.53984440E-04
 -9.04049370E-12 -1.37515642E-11 -6.80491472E-04  1.11511447E-12 -2.19626171E-14
  9.13703004E-05 -1.68623257E-13 -2.13425707E-12 -4.20023087E-04 -4.43045995E-12
 -2.68196576E-12  4.81108317E-03  8.35550065E-12  4.31914678E-12  6.46344820E-03
 -1.40229695E-11  8.43057122E-13 -7.86972853E-03 -9.19173918E-12  6.60670180E-12
  8.18107608E-03 -3.37186724E-12 -9.40176480E-12  8.61589934E-03  5.37927163E-13
 -5.89040359E-13 -6.10106231E-02  9.08149027E-12  3.36757973E-12  1.29430983E-01
  5.42982102E-12 -1.99308671E-03  3.31001779E-03  3.94092468E-13  3.21277412E-03
  3.77358962E-04  4.75179004E-13 -6.38423525E-03  5.78676101E-03  3.46337930E-12
 -9.35361422E-03 -5.64227040E-03 -3.01098968E-12  4.38825119E-03 -8.67199441E-04
 -1.68577575E-13 -1.89052196E-03 -4.09089269E-03  1.86723741E-12  8.96289819E-03
  9.88439168E-04 -9.27299689E-12  1.49039659E-02 -7.50872556E-03  9.82701387E-12
 -6.21610110E-02  1.43839768E-03 -6.19958846E-12 -1.65419851E-02  1.20965431E-02
  1.54202641E-12  2.79431516E-02 -2.75732769E-02 -4.73695357E-12 -4.72937713E-03
 -3.25547126E-03 -9.08152039E-12 -1.23648081E-01 -3.12932828E-02 -3.30784268E-12
  7.89366287E-01 -3.45339238E-12  3.31001779E-03 -7.17980748E-03 -4.05383215E-12
 -7.16612090E-03 -6.64133620E-04  1.05357806E-11  1.30579597E-02 -1.02945460E-02
  1.97166220E-12  1.47649848E-02  1.16781062E-02 -7.47206802E-12 -8.42675568E-03
  5.79272879E-04  2.13424356E-12  4.09089269E-03  6.95767847E-03 -1.21564197E-11
 -2.12959081E-02 -3.32170523E-03 -6.24835425E-12 -2.90336699E-02  5.69668425E-04
 -5.02011341E-12  3.14238574E-02  3.35676269E-02  1.64420488E-11  3.56112503E-02
 -1.72095802E-02 -3.03953347E-12 -6.64288543E-02 -3.14372941E-02 -7.20492328E-12
 -1.65919004E-03  8.37060952E-04  3.36728722E-12  3.12932828E-02 -2.97590270E-01
 -1.12235466E-11 -6.13367430E-03  6.69229090E-01  1.87932548E-04 -3.93996631E-13
  4.05372622E-12 -6.73619100E-04  4.43945728E-14  6.10145581E-12 -7.83073719E-04
 -9.41808047E-12  9.96986937E-12  7.60119931E-03  6.52645717E-12  1.32723899E-11
  6.04737922E-04 -4.06444446E-12 -6.22548962E-13 -6.80491472E-04 -3.01105356E-12
  7.47204874E-12  4.09797127E-03  2.32674600E-11  1.04038341E-11  4.01978460E-03
 -1.37038438E-11  1.55227103E-12 -6.54325240E-02  6.09631185E-12  2.65124133E-12
  5.53577367E-03 -5.67072141E-13 -1.01211022E-12 -4.52571587E-03  5.50689453E-12
  1.56538241E-11 -1.91697102E-04 -1.75447675E-13  1.51891319E-12  8.18107608E-03
 -1.54198198E-12 -3.03940445E-12 -5.76743693E-02  1.97587470E-12  7.15010967E-12
  1.31353152E-01 -6.39507306E-13  3.21277412E-03 -7.16612090E-03 -4.45203631E-14
 -5.78537757E-03 -5.86841920E-04 -4.08140998E-13  1.09182342E-02 -1.17244836E-02
  1.70804277E-12  1.97492732E-02  1.70636949E-02 -4.06452317E-12 -1.10215414E-02
  5.36342991E-04  1.11505064E-12  4.38825119E-03  8.42675568E-03  1.94735298E-12
 -1.63815239E-02  1.08932508E-03  3.63571849E-12 -7.31520315E-02 -7.64178052E-03
 -2.63901229E-13 -2.25828580E-01 -7.93601564E-02 -4.94725197E-12  3.27036328E-02
 -3.30822337E-02 -5.50715768E-12 -4.89164405E-02 -4.41143921E-03  6.34568045E-12
 -9.72238646E-04  1.72748330E-04  3.37160922E-12  2.79431516E-02  6.64288543E-02
  6.32586482E-12 -3.54104013E-01  1.02969472E-01 -4.99304070E-12  7.12504134E-01
  5.68398021E-12  3.77358962E-04 -6.64133620E-04 -6.10140228E-12 -5.86841920E-04
 -1.40697479E-04  7.65315148E-12  1.30365734E-03 -1.33852210E-03  5.66862511E-12
  6.52979054E-03 -1.45788779E-03  6.22663748E-13 -5.36342991E-04  1.50646159E-03
  2.20502898E-14  8.67199441E-04  5.79272879E-04 -1.29995737E-11  1.52942138E-03
 -5.46527949E-03 -2.10240254E-11  1.01663039E-02  1.62217816E-02  2.35134392E-12
 -9.86958534E-02 -1.69440752E-01  8.66615632E-12 -2.94519655E-02 -1.87774413E-02
  1.56538002E-11  4.41143921E-03 -3.79351573E-04 -9.70357622E-12  4.15795961E-05
  6.03977886E-04 -9.40177581E-12  2.75732769E-02 -3.14372941E-02 -6.88432219E-12
  1.59274859E-01 -2.04490565E-01  1.04285216E-11 -6.58047979E-02  7.50799848E-01
 -1.13297486E-04 -1.86084213E-12 -4.45645512E-12 -3.99167354E-03  4.31706097E-12
 -5.69416679E-12  3.45840588E-03  7.98483049E-12 -4.18266051E-12  5.87340397E-03
 -7.85074452E-12 -2.22791570E-12  1.84681709E-04 -4.05573219E-13 -5.51891043E-13
 -2.11668753E-04  2.30597840E-12 -1.34831261E-12 -3.44385500E-02 -6.46443042E-12
 -1.17973228E-12 -1.42527649E-04 -1.68416960E-14  5.83219368E-12  5.87340444E-03
 -2.30228719E-12 -1.23308009E-12  3.45840643E-03  3.39131709E-12  4.32619528E-12
 -3.99167409E-03  4.71070769E-12  6.33490784E-12  2.72820959E-04 -4.92659530E-13
  4.20892861E-13 -1.13297367E-04 -6.74847364E-12  3.27464407E-12 -2.11668984E-04
 -3.14052117E-12  6.19035491E-13  1.84682416E-04  9.16835097E-13  3.18023325E-12
  2.37836417E-02  1.06435505E-13  1.56650674E-04 -4.80730583E-04 -9.25738226E-14
  1.57409701E-03  1.79124841E-03 -5.87618853E-13  3.65911247E-03  2.82231775E-02
 -2.38424395E-12 -4.77050370E-03  1.19619926E-03  9.61668794E-13  4.08815046E-04
  1.44026251E-03 -9.12389850E-13  1.92523517E-04  1.86950815E-04  9.39623762E-13
 -5.94739107E-02 -1.85052347E-11  7.17039618E-13 -9.64259732E-04  7.51468691E-11
 -2.09826788E-12 -4.77050373E-03 -1.19619914E-03 -1.03263268E-12  3.65911249E-03
 -2.82231778E-02  2.77292874E-13  1.57409688E-03 -1.79124828E-03 -8.03735757E-13
 -3.75960824E-04  9.78782093E-04 -2.74379920E-14  1.56650884E-04  4.80730999E-04
 -4.02956207E-13  1.92523705E-04 -1.86950990E-04  3.67917708E-13  4.08814852E-04
 -1.44026252E-03  5.48129684E-13  5.94320158E-02  7.35309799E-13  2.84047802E-04
 -2.88401084E-05  1.04398850E-12 -1.94674631E-03  9.02043688E-04  1.06412846E-13
 -1.96214787E-03 -1.29541896E-02 -5.76875384E-12  2.99004604E-03  1.01793192E-03
  5.07277281E-12 -7.35765056E-04 -7.69858004E-04 -2.50874387E-12  9.29762549E-05
  2.15804122E-04  9.47075670E-13  3.62821043E-11 -3.38931462E-01  2.17872526E-12
  9.66990181E-10  5.15157086E-04  3.05108831E-12 -2.99004640E-03  1.01793244E-03
 -2.97002406E-12  1.96214757E-03 -1.29541896E-02 -8.21476277E-13  1.94674620E-03
  9.02043592E-04  2.65996012E-12 -9.66801599E-04  4.11349610E-04  1.88376246E-12
 -2.84047160E-04 -2.88399707E-05 -1.54907551E-13 -9.29753675E-05  2.15803651E-04
 -5.04041534E-12  7.35764264E-04 -7.69857785E-04 -7.70155483E-13 -2.87958444E-11
  3.61217573E-01 -3.62502968E-02 -4.31109551E-13 -8.37491992E-13  3.33929775E-03
 -3.37016533E-13  4.89329913E-13  9.60927396E-03 -4.75761768E-12  2.45017293E-14
 -2.56229515E-04  3.61385249E-14 -2.36549653E-13  4.30890240E-03 -1.17523642E-12
  2.47101570E-12  2.24736308E-03  8.82475048E-13 -1.03864867E-12  3.74867689E-04
  1.97569616E-12  2.29117350E-12 -7.84126831E-04 -2.02218781E-12  4.18904980E-12
  1.67343898E-04 -2.30142125E-13 -8.65567894E-13 -1.05239999E-03 -1.28926386E-12
 -2.66380992E-12 -7.36158146E-05 -5.39292750E-13 -2.51998362E-12 -1.37842032E-05
 -5.50142841E-13 -5.13266202E-13  9.34246128E-05 -4.50963022E-12  4.73522760E-13
 -7.90153985E-06  1.30496140E-12  4.32254134E-12  6.38800963E-05 -3.37659104E-12
  2.32666368E-12  2.79166618E-04 -4.28680841E-13 -2.14070109E-12  2.52588364E-02
 -1.49424356E-12 -2.76610529E-01 -1.22468120E-01  2.42341420E-13 -1.94279931E-02
 -1.63196851E-02  3.61943395E-13 -2.35149615E-03  4.40087782E-03  8.46460568E-14
 -3.44789142E-05  5.48384893E-04 -4.21157513E-12  1.39000540E-03  5.85059025E-04
  8.47699360E-13  3.87554301E-03  2.65499801E-03  1.27186402E-12 -5.17533155E-04
 -1.30709596E-03 -1.32430611E-12  2.64840165E-04 -6.09506178E-05 -7.16308230E-13
 -6.26372801E-05  1.21369059E-04  3.22978469E-13 -4.80972290E-04  3.09976618E-04
 -4.84268445E-12  1.19588644E-05 -1.78969776E-04  1.45417997E-13  5.43362379E-06
  1.85092613E-05 -1.01685381E-12 -1.17008049E-04 -1.50544116E-05  2.28503612E-13
 -3.53033915E-05  8.76094743E-05  8.77520845E-13  8.23013269E-05  2.83219479E-05
 -2.53145698E-13 -6.24630744E-06  6.43541974E-05  1.89670457E-12  2.92295587E-01
  9.88751450E-15 -1.23217324E-01 -1.29416531E-01  1.53537140E-12  1.59755786E-02
  1.21082466E-02 -1.09889355E-12  3.15185470E-03 -1.74933158E-03  6.69353550E-13
  1.09766862E-03 -4.03851760E-04 -1.16654833E-12  1.77085417E-03 -5.89818764E-03
 -1.52605506E-12 -2.92326751E-02 -1.01101286E-02  3.09160604E-13  1.86743779E-04
  7.90125874E-04 -2.51653807E-12 -3.70439158E-04  1.55999114E-04  8.19626940E-13
  1.55450900E-04 -1.78597362E-04 -3.70676212E-13  3.58809849E-04 -2.97375838E-05
 -1.92411597E-12 -5.50456599E-05  6.89479749E-05 -3.79611490E-13 -8.40651224E-06
  4.03178444E-06 -9.71640222E-13  5.61003652E-05  8.76879139E-05 -2.62129204E-13
  4.25352857E-05 -9.03153185E-05  1.35185966E-12 -1.10809988E-04  2.02059967E-05
  2.47590409E-13 -2.03245279E-05 -8.00326157E-06  4.77046913E-13  1.31568392E-01
  1.33311063E-01  3.72127413E-03 -5.55380689E-12 -7.75404877E-13 -3.55757569E-02
  4.60850651E-12  8.78842000E-13  2.98693560E-03  4.96170372E-12 -3.81122802E-12
  4.30281296E-03 -2.40094590E-12  4.53184756E-12 -1.91697102E-04  6.34569332E-12
  9.70367546E-12  8.61589934E-03 -4.73704266E-12  7.20510041E-12 -2.72651849E-03
  2.67142791E-12  6.25784784E-13  1.95782734E-04  1.34974389E-12  6.67299541E-13
 -1.61508823E-04 -4.50152791E-12  2.37809523E-12 -1.21919602E-04  1.82143055E-12
  5.10998061E-12  1.07529650E-04 -1.31927883E-12 -1.27687996E-12  1.78012268E-05
 -3.94903605E-13 -4.03792566E-13  6.59690947E-06  1.79723552E-12 -9.27248927E-14
 -2.21874495E-05  1.25423136E-12  1.96480748E-12  1.66175725E-05 -2.91386596E-12
  3.85855994E-12  2.72821018E-04 -6.32742405E-13 -1.84777210E-12 -5.30500444E-03
 -7.02297230E-13 -2.58485476E-12  2.46909379E-02  1.32421296E-13  4.55291954E-03
  2.93716861E-02 -5.96176641E-13 -5.91871635E-02 -7.41879396E-04  1.68719063E-12
  3.41507566E-03 -2.80399210E-02 -1.58855519E-12 -4.91096733E-03 -1.05998559E-03
 -1.75438846E-13 -9.72238646E-04 -4.15795961E-05  5.37925601E-13 -4.72937713E-03
  1.65919004E-03  1.36373238E-12  1.68027024E-03 -1.64774525E-03  8.28767094E-13
  4.57029065E-04 -1.52322040E-03 -8.00053019E-16  2.63078181E-04 -9.65155235E-05
 -8.99006034E-13  1.35846225E-04  5.15303953E-04 -1.20720554E-12 -5.95194046E-05
 -1.36108487E-05 -3.94906207E-13 -2.73226068E-05  1.23295394E-05  1.29921171E-12
  4.74813277E-05 -8.17413700E-07 -8.21521232E-13 -3.36770491E-05 -6.19119711E-05
 -5.10821336E-13 -5.02085824E-05  7.56511230E-05 -4.55650464E-13 -3.75960830E-04
  9.66801479E-04 -9.03420408E-13  1.00201392E-03 -3.13470116E-04 -2.01968310E-12
  5.88675275E-02  3.71309238E-12 -3.03672193E-03 -1.18228311E-02 -5.12959727E-12
  1.88118238E-04 -3.42573349E-01 -4.99449334E-13  2.08363221E-03 -1.25261162E-02
  2.54590122E-12 -2.85446625E-03  9.41754747E-04 -1.51880054E-12 -1.72748330E-04
  6.03977886E-04  5.89169470E-13  3.25547126E-03  8.37060952E-04 -5.43941719E-13
  1.83749556E-03  8.54151482E-04 -2.52634723E-12  7.29497264E-04 -7.44045073E-04
  3.62152718E-12 -3.94632482E-05  1.80693467E-04 -5.21045587E-12 -4.04141939E-04
  1.85318297E-04  2.48892697E-13  8.75786490E-05 -1.09823753E-04  4.03803595E-13
 -1.23295394E-05  2.94123280E-05 -5.57847911E-13 -5.37521992E-05 -1.05056131E-04
  3.13330590E-12 -1.17471663E-04  3.96075307E-05 -3.58822438E-12  5.21420430E-05
  1.32357241E-04  1.78163851E-12 -9.78782160E-04  4.11349445E-04 -6.16793870E-13