FCHK created with reform_fchk from anthracene_pbe0_S1-f.fchk
Freq      TD RPBE1PBE                                                 6-31G(d)  
Number of atoms                            I               24
Charge                                     I                0
Multiplicity                               I                1
Atomic numbers                             I   N=          24
           6           6           6           6           6           6
           6           6           6           6           6           1
           6           6           6           1           1           1
           1           1           1           1           1           1
Nuclear charges                            R   N=          24
  6.00000000E+00  6.00000000E+00  6.00000000E+00  6.00000000E+00  6.00000000E+00
  6.00000000E+00  6.00000000E+00  6.00000000E+00  6.00000000E+00  6.00000000E+00
  6.00000000E+00  1.00000000E+00  6.00000000E+00  6.00000000E+00  6.00000000E+00
  1.00000000E+00  1.00000000E+00  1.00000000E+00  1.00000000E+00  1.00000000E+00
  1.00000000E+00  1.00000000E+00  1.00000000E+00  1.00000000E+00
Current cartesian coordinates              R   N=          72
  4.93038066E-32  6.97430696E+00  1.31020194E+00 -9.86076132E-32  4.67064863E+00
  2.63700716E+00 -7.39557099E-32  2.34437267E+00  1.35939413E+00  1.66477767E-16
  2.34437267E+00 -1.35939413E+00  3.22940238E-16  4.67064863E+00 -2.63700716E+00
  1.60453461E-16  6.97430696E+00 -1.31020194E+00 -9.87165514E-33  0.00000000E+00
  2.63286301E+00  3.22432726E-16 -1.97433103E-32 -2.63286301E+00 -2.87102849E-16
 -2.34437267E+00 -1.35939413E+00 -2.87102849E-16 -2.34437267E+00  1.35939413E+00
 -5.71989489E-16 -4.67064863E+00  2.63700716E+00  0.00000000E+00 -4.67490841E+00
  4.69186062E+00 -8.54106270E-16 -6.97430696E+00  1.31020194E+00 -8.54106270E-16
 -6.97430696E+00 -1.31020194E+00 -5.71989489E-16 -4.67064863E+00 -2.63700716E+00
 -1.75858468E-32  0.00000000E+00  4.69031029E+00 -2.95822839E-31  8.74422129E+00
  2.34936111E+00  5.72511162E-16  4.67490841E+00  4.69186062E+00  5.72511162E-16
  4.67490841E+00 -4.69186062E+00  2.87713757E-16  8.74422129E+00 -2.34936111E+00
  5.74397348E-16 -3.51716937E-32 -4.69031029E+00 -1.07085826E-15 -8.74422129E+00
  2.34936111E+00 -1.07085826E-15 -8.74422129E+00 -2.34936111E+00  5.74587209E-16
 -4.67490841E+00 -4.69186062E+00
Integer atomic weights                     I   N=          72
          12          12          12          12          12          12
          12          12          12          12          12           1
          12          12          12           1           1           1
           1           1           1           1           1           1
           0           0           0           0           0           0
           0           0           0           0           0           0
           0           0           0           0           0           0
           0           0           0           0           0           0
           0           0           0           0           0           0
           0           0           0           0           0           0
           0           0           0           0           0           0
           0           0           0           0           0           0
Real atomic weights                        R   N=          72
  1.20000000E+01  1.20000000E+01  1.20000000E+01  1.20000000E+01  1.20000000E+01
  1.20000000E+01  1.20000000E+01  1.20000000E+01  1.20000000E+01  1.20000000E+01
  1.20000000E+01  1.00782504E+00  1.20000000E+01  1.20000000E+01  1.20000000E+01
  1.00782504E+00  1.00782504E+00  1.00782504E+00  1.00782504E+00  1.00782504E+00
  1.00782504E+00  1.00782504E+00  1.00782504E+00  1.00782504E+00  0.00000000E+00
  0.00000000E+00  0.00000000E+00  0.00000000E+00  0.00000000E+00  0.00000000E+00
  0.00000000E+00  0.00000000E+00  0.00000000E+00  0.00000000E+00  0.00000000E+00
  0.00000000E+00  0.00000000E+00  0.00000000E+00  0.00000000E+00  0.00000000E+00
  0.00000000E+00  0.00000000E+00  0.00000000E+00  0.00000000E+00  0.00000000E+00
  0.00000000E+00  0.00000000E+00  0.00000000E+00  0.00000000E+00  0.00000000E+00
  0.00000000E+00  0.00000000E+00  0.00000000E+00  0.00000000E+00  0.00000000E+00
  0.00000000E+00  0.00000000E+00  0.00000000E+00  0.00000000E+00  0.00000000E+00
  0.00000000E+00  0.00000000E+00  0.00000000E+00  0.00000000E+00  0.00000000E+00
  0.00000000E+00  0.00000000E+00  0.00000000E+00  0.00000000E+00  0.00000000E+00
  0.00000000E+00  0.00000000E+00
SCF Energy                                 R     -5.388827849230845E+02
CIS Energy                                 R     -5.387750650755249E+02
Total Energy                               R     -5.387750650755249E+02
Cartesian Gradient                         R   N=          72
 -9.05039999E-15  3.00200474E-05 -4.35926888E-05  1.25166542E-15 -4.68254046E-05
  5.94420172E-05 -2.70920125E-15  1.74151450E-05 -5.29121948E-05 -6.69238193E-15
  1.74151449E-05  5.29121949E-05 -1.78436971E-15 -4.68254047E-05 -5.94420173E-05
  1.41091470E-15  3.00200474E-05  4.35926888E-05  3.81691847E-15  9.50350964E-14
  2.20272514E-05  7.20425999E-15 -8.88181384E-16 -2.20272513E-05  1.48345679E-15
 -1.74151450E-05  5.29121949E-05  1.07957987E-15 -1.74151449E-05 -5.29121949E-05
 -4.89596303E-15  4.68254047E-05  5.94420173E-05  3.37773199E-15 -1.55714104E-06
 -1.05891126E-05 -2.16610333E-16 -3.00200473E-05 -4.35926888E-05 -9.89271724E-15
 -3.00200473E-05  4.35926888E-05 -2.62268091E-15  4.68254046E-05 -5.94420172E-05
 -5.94184526E-16 -1.33226763E-15 -8.20038493E-06 -1.10066589E-15  6.06231751E-06
 -5.38396136E-06  6.60528514E-15  1.55714104E-06 -1.05891126E-05 -8.67499413E-16
  1.55714104E-06  1.05891126E-05  1.47158391E-15  6.06231752E-06  5.38396135E-06
  3.13317927E-15  1.11021667E-16  8.20038493E-06 -4.27302911E-16 -6.06231752E-06
 -5.38396135E-06 -1.47658594E-15 -6.06231750E-06  5.38396135E-06  1.14959856E-14
 -1.55714103E-06  1.05891126E-05
Cartesian Force Constants                  R   N=        2628
  1.15771646E-01 -2.88038628E-12  7.03244747E-01 -3.66168233E-13  4.42820075E-02
  7.13818352E-01 -5.20799353E-02 -9.06006820E-12 -1.03857889E-12  1.17101570E-01
 -7.27822224E-13 -2.75715855E-01  6.15315922E-02 -2.52753033E-12  6.72696343E-01
 -1.33433046E-13  1.13893674E-01 -1.67624439E-01 -1.53679177E-12 -2.55667702E-03
  7.23883863E-01  4.36531655E-03  1.41588997E-11  1.79845835E-12 -5.59042683E-02
  4.49935374E-12  3.92925692E-12  1.37705325E-01  2.36550824E-13 -5.15339140E-02
  1.17995311E-02  1.25306545E-12 -2.67735155E-01 -1.09456145E-01 -1.59816160E-12
  7.15228067E-01  1.14535169E-12 -6.42978321E-03  3.81582900E-02  3.45925486E-12
 -9.16831478E-02 -1.81154270E-01 -6.25637487E-12  1.17763181E-02  6.53215035E-01
 -3.21493013E-03 -1.35982839E-11 -1.67996129E-12  3.95919099E-03 -4.81363756E-12
 -3.95942915E-12 -6.45335220E-02  1.81722905E-12  5.95820429E-12  1.37705325E-01
  4.61841723E-13  8.62900454E-03  1.58542690E-02  1.23815746E-12  1.32293212E-03
 -3.02523796E-02 -1.81722905E-12 -1.05777651E-01  2.01271765E-03  1.59816016E-12
  7.15228067E-01 -1.04948058E-12  1.52363188E-02 -2.51983405E-02 -3.54852146E-12
 -4.13432962E-02 -1.73309523E-02  5.95820429E-12 -2.01271765E-03 -2.63770367E-01
 -6.25631174E-12 -1.17763181E-02  6.53215035E-01  7.10442471E-03  8.66920873E-12
  1.10604961E-12 -8.05404697E-03  2.54056478E-12  1.57965735E-12  3.95919099E-03
 -1.23815746E-12 -3.54852147E-12 -5.59042683E-02 -1.25305205E-12  3.45923952E-12
  1.17101570E-01 -4.03543294E-13  1.32544618E-02 -5.74108770E-02 -2.54056478E-12
 -2.66796464E-02  1.39383564E-03  4.81363756E-12  1.32293212E-03  4.13432962E-02
 -4.49934251E-12 -2.67735155E-01  9.16831478E-02  2.52753065E-12  6.72696343E-01
  3.67723930E-13 -2.91417793E-02 -3.17954730E-02  1.57965735E-12 -1.39383564E-03
  2.61795293E-03 -3.95942916E-12  3.02523796E-02 -1.73309523E-02  3.92924159E-12
  1.09456145E-01 -1.81154270E-01 -1.53671746E-12  2.55667702E-03  7.23883863E-01
 -5.45145362E-02  3.12747990E-12  3.42281626E-13  7.10442471E-03  4.03543295E-13
  3.67723930E-13 -3.21493013E-03 -4.61841723E-13 -1.04948058E-12  4.36531655E-03
 -2.36552269E-13  1.14535583E-12 -5.20799353E-02  7.27814689E-13 -1.33447196E-13
  1.15771646E-01 -3.12747990E-12 -1.16162799E-01  2.98676042E-02 -8.66920873E-12
  1.32544618E-02  2.91417793E-02  1.35982839E-11  8.62900454E-03 -1.52363188E-02
 -1.41588989E-11 -5.15339140E-02  6.42978321E-03  9.06005426E-12 -2.75715855E-01
 -1.13893674E-01  2.88038085E-12  7.03244747E-01  3.42281626E-13 -2.98676042E-02
 -3.75426254E-01  1.10604961E-12  5.74108770E-02 -3.17954730E-02 -1.67996129E-12
 -1.58542690E-02 -2.51983405E-02  1.79846249E-12 -1.17995311E-02  3.81582900E-02
 -1.03859304E-12 -6.15315922E-02 -1.67624439E-01 -3.66094994E-13 -4.42820075E-02
  7.13818352E-01  5.91265678E-03 -2.34889924E-11  1.48261746E-11  5.54904982E-03
  8.18238589E-12  1.16764605E-10 -5.03138572E-02 -8.28098670E-11 -1.71561549E-11
  1.32623216E-03 -6.45838097E-11  3.02126110E-12  4.87553522E-03  4.58053137E-12
 -9.42722563E-11 -1.22295268E-03 -2.29165682E-12 -3.11328446E-11  1.13879520E-01
  1.34776710E-11  3.73230549E-03 -1.14917609E-02  1.03126219E-11 -6.40255358E-02
  6.22396922E-03  1.16888803E-11 -2.42236164E-01  8.37940664E-02  4.55785683E-11
  3.37397708E-03  3.58184356E-02  3.59028306E-12  1.58649235E-02 -2.22843023E-03
  9.07065860E-12 -1.25037137E-02  3.30581543E-04 -2.16156538E-10  6.60939436E-01
  6.59305008E-13 -3.65725984E-03 -2.81620069E-03  1.85824770E-12 -1.07701020E-02
  1.76465609E-02  1.84561943E-14  1.06474866E-01 -1.69482837E-01  4.30025758E-12
  3.41219886E-02 -2.33849777E-02 -1.48127274E-12 -6.30544167E-03 -8.20764376E-03
 -8.06032207E-13  8.76854674E-04  1.79333515E-03 -2.68273306E-12  9.81720389E-11
  7.03924773E-01 -1.22295268E-03  2.29165682E-12 -3.11328446E-11  4.87553522E-03
 -4.58053137E-12 -9.42722563E-11  1.32623216E-03  6.45838097E-11  3.02126110E-12
 -5.03138572E-02  8.28098540E-11 -1.71561694E-11  5.54904982E-03 -8.18238457E-12
  1.16764606E-10  5.91265678E-03  2.34889928E-11  1.48261735E-11 -5.90833851E-03
 -1.96488260E-10 -4.31775875E-12  1.13879520E-01 -9.07065860E-12 -1.25037137E-02
 -3.30581543E-04 -3.59028306E-12  1.58649235E-02  2.22843023E-03 -4.55785683E-11
  3.37397708E-03 -3.58184356E-02 -1.16888906E-11 -2.42236164E-01 -8.37940664E-02
 -1.03126226E-11 -6.40255358E-02 -6.22396922E-03 -1.34776696E-11  3.73230549E-03
  1.14917609E-02  1.96488260E-10 -1.34345176E-02  1.08212862E-10  2.16156538E-10
  6.60939436E-01 -8.06032208E-13 -8.76854674E-04  1.79333515E-03 -1.48127274E-12
  6.30544167E-03 -8.20764376E-03  4.30025758E-12 -3.41219886E-02 -2.33849777E-02
  1.84416003E-14 -1.06474866E-01 -1.69482837E-01  1.85824918E-12  1.07701020E-02
  1.76465609E-02  6.59303939E-13  3.65725984E-03 -2.81620069E-03 -4.31775875E-12
 -1.08212862E-10  2.27543208E-03 -2.68266080E-12 -9.81720389E-11  7.03924773E-01
 -1.13060964E-04  1.47283572E-11  1.15968287E-12 -1.41183914E-03  4.65570040E-12
  4.00643173E-12  1.00460094E-03 -1.79160769E-12 -5.83740642E-12 -3.42813676E-04
 -1.21049034E-12  6.19644021E-12  4.37336200E-03  4.42921009E-12 -3.56258926E-12
 -3.75429478E-04  1.47775677E-11 -1.56903162E-12  1.32623216E-03  4.55785662E-11
  1.78883225E-13 -5.03138572E-02 -1.16888870E-11  3.39201891E-12  1.37705325E-01
 -4.00367283E-13  6.56622001E-03  3.12302190E-03 -1.65326830E-12 -9.56511897E-03
 -3.13752611E-04  1.79160840E-12  6.79901675E-03  1.49716846E-02 -1.21049103E-12
 -6.89008071E-02 -5.65937924E-03  1.46167517E-12  1.65485004E-02 -7.97808186E-03
  2.65432823E-13 -6.92398891E-03 -5.22431392E-03 -6.45838116E-11  3.37397708E-03
 -3.41219887E-02  8.28098618E-11 -2.42236164E-01  1.06474866E-01  1.59823233E-12
  7.15228067E-01 -8.25875195E-13  2.21543670E-03 -4.48302333E-03 -3.27933525E-12
 -5.89965012E-03 -2.05408066E-03  5.83740825E-12  1.49716846E-02 -1.05362439E-02
 -6.19643700E-12  5.65937924E-03  2.58740393E-02  3.20725861E-12 -1.19606692E-02
 -7.46667420E-04  1.30578506E-12  2.03183930E-03  6.24683507E-03 -3.02126481E-12
 -3.58184356E-02 -2.33849777E-02  1.71561527E-11  8.37940664E-02 -1.69482837E-01
  6.25637631E-12  1.17763181E-02  6.53215035E-01 -3.75429478E-04 -1.47775676E-11
 -1.56903202E-12  4.37336200E-03 -4.42921082E-12 -3.56258895E-12 -3.42813676E-04
  1.21049069E-12  6.19643860E-12  1.00460094E-03  1.79160678E-12 -5.83740713E-12
 -1.41183914E-03 -4.65570003E-12  4.00643169E-12 -1.13060964E-04 -1.47283574E-11
  1.15968260E-12 -5.03138572E-02  1.16888921E-11  3.39202621E-12  1.32623216E-03
 -4.55785640E-11  1.78881712E-13 -6.45335220E-02 -1.81722917E-12 -5.95821649E-12
  1.37705325E-01 -2.65433144E-13 -6.92398891E-03  5.22431392E-03 -1.46167566E-12
  1.65485004E-02  7.97808186E-03  1.21049069E-12 -6.89008071E-02  5.65937924E-03
 -1.79160932E-12  6.79901675E-03 -1.49716846E-02  1.65326832E-12 -9.56511897E-03
  3.13752611E-04  4.00367091E-13  6.56622001E-03 -3.12302190E-03 -8.28098553E-11
 -2.42236164E-01 -1.06474866E-01  6.45838137E-11  3.37397708E-03  3.41219887E-02
  1.81722917E-12 -1.05777651E-01  2.01271765E-03 -1.59823233E-12  7.15228067E-01
  1.30578466E-12 -2.03183930E-03  6.24683507E-03  3.20725893E-12  1.19606692E-02
 -7.46667420E-04 -6.19643860E-12 -5.65937924E-03  2.58740393E-02  5.83740755E-12
 -1.49716846E-02 -1.05362439E-02 -3.27933529E-12  5.89965012E-03 -2.05408066E-03
 -8.25875464E-13 -2.21543670E-03 -4.48302333E-03  1.71561600E-11 -8.37940664E-02
 -1.69482837E-01 -3.02126632E-12  3.58184356E-02 -2.33849777E-02 -5.95821649E-12
 -2.01271765E-03 -2.63770367E-01  6.25637631E-12 -1.17763181E-02  6.53215035E-01
 -1.30244172E-04  9.04930930E-12  7.70212768E-13  3.24868744E-04  2.45511199E-12
  1.50234846E-12  4.37336200E-03 -1.46167566E-12 -3.20725893E-12 -1.41183914E-03
 -1.65326728E-12  3.27933448E-12 -3.29928851E-04  2.55298854E-12 -1.85066300E-12
 -2.44421337E-05  8.98136906E-12 -6.66095126E-13  5.54904982E-03  1.03126261E-11
 -1.92934160E-12  4.87553522E-03 -3.59028401E-12  2.62957028E-12  3.95919099E-03
  1.23815931E-12  3.54852016E-12 -5.59042683E-02  1.25309139E-12 -3.45926609E-12
  1.17101570E-01  7.58432222E-13  9.51190018E-03 -1.03545839E-02  2.45511199E-12
 -1.50902096E-02  1.21142573E-03 -4.42921082E-12  1.65485004E-02 -1.19606692E-02
  4.65570176E-12 -9.56511897E-03  5.89965012E-03 -2.55298918E-12  1.93660542E-03
 -2.99246629E-03 -7.38351247E-13  2.60148868E-03  7.54519669E-03  8.18239015E-12
 -6.40255358E-02  1.07701020E-02 -4.58053281E-12  1.58649235E-02 -6.30544168E-03
 -4.81363503E-12  1.32293212E-03  4.13432962E-02  4.49937968E-12 -2.67735155E-01
  9.16831478E-02 -2.52759837E-12  6.72696343E-01 -1.37362747E-13  1.76960253E-03
 -3.20031516E-03 -1.50234846E-12 -1.21142573E-03  2.77784501E-03  3.56258895E-12
 -7.97808186E-03 -7.46667420E-04 -4.00643180E-12  3.13752611E-04 -2.05408066E-03
  1.85066327E-12 -2.99246629E-03 -1.13640167E-03  8.21793445E-14  3.47944447E-03
  3.08348508E-03 -1.16764605E-10 -6.22396922E-03  1.76465609E-02  9.42722548E-11
 -2.22843023E-03 -8.20764373E-03  3.95942785E-12  3.02523796E-02 -1.73309523E-02
 -3.92927033E-12  1.09456145E-01 -1.81154270E-01  1.53679146E-12  2.55667702E-03
  7.23883863E-01  5.13272588E-05  5.67689994E-14 -5.65394202E-14 -1.56353136E-05
  9.70986922E-14  2.00636331E-13 -4.03210855E-04  3.51833633E-14 -8.18549822E-14
  4.73771399E-04  4.98656561E-14  1.21035548E-13 -3.05176266E-05  9.22120255E-14
 -2.67046241E-13  6.13981943E-05  1.10134578E-13  1.00214953E-13 -3.59697947E-03
 -1.50978779E-12  3.83735988E-13  7.79373354E-04  1.14042982E-12 -2.72204858E-13
  6.38363001E-03 -2.28201171E-14  5.28279403E-14  3.31933862E-03 -7.60297773E-14
 -1.24750021E-13 -3.29784230E-02 -2.00998704E-13  3.19905554E-13  2.15174413E-02
  3.32685953E-12  4.81691808E-05 -8.59670402E-05  9.70750460E-12 -8.06437930E-05
  9.48235864E-05 -1.27973873E-11  1.25992285E-04 -4.51179173E-04  1.26795009E-11
  2.12650308E-04  8.05559498E-06 -9.69106556E-12  5.05821744E-05 -1.49828195E-04
 -3.39743206E-12 -3.11084011E-05  6.32186096E-05  4.47301054E-11  1.52438669E-03
  1.88372835E-03 -3.86863777E-11  5.96506804E-04  1.45725422E-03 -1.26049621E-11
 -5.13598572E-03  1.20804881E-03  1.25751749E-11  3.62184610E-03  2.82158598E-02
 -9.79509462E-12 -5.93517670E-02  1.07033939E-03  3.42866275E-13  5.91525640E-02
  1.05888572E-12  2.14696784E-05  2.23083409E-05  2.06012812E-12 -4.82100969E-06
 -1.15449062E-04 -2.81944448E-12  3.94327238E-04  2.01619766E-04  3.16673093E-12
 -7.62333101E-05  1.83458039E-04 -2.48599048E-12  4.32110090E-05  1.08039382E-04
 -8.42440183E-13 -2.30453069E-05 -1.70699827E-05  2.44804644E-11 -1.81875588E-03
  7.57136913E-04 -7.67212207E-12 -6.81233072E-04 -6.85447110E-04 -2.91407630E-12
  2.87303211E-03  8.73415491E-04  3.06353682E-12 -1.91977709E-03 -1.26924319E-02
 -2.65713986E-12  9.99080896E-04 -3.43432413E-01  1.37954260E-13 -1.11861437E-03
  3.64502907E-01  5.72942756E-05  2.35776928E-12  3.61136914E-13 -1.30244172E-04
  7.58432223E-13  1.37362747E-13 -3.75429478E-04 -2.65433144E-13 -1.30578466E-12
 -1.13060964E-04 -4.00368292E-13  8.25875200E-13 -2.44421337E-05  7.38351849E-13
 -8.21793900E-14  2.17592647E-04  2.59370793E-12 -3.77666499E-13  5.91265678E-03
  1.34776711E-11 -1.45011270E-12 -1.22295268E-03 -9.07065787E-12  1.17016050E-12
 -3.21493013E-03  4.61840751E-13  1.04947923E-12  4.36531655E-03  2.36557670E-13
 -1.14535248E-12 -5.20799353E-02 -7.27794837E-13  1.33446993E-13  3.30227304E-03
 -3.39195787E-12 -1.05476408E-12  1.15771646E-01  2.35776928E-12 -9.39575909E-03
  8.68403856E-03  9.04930930E-12  9.51190018E-03 -1.76960253E-03 -1.47775676E-11
 -6.92398891E-03  2.03183930E-03  1.47283563E-11  6.56622001E-03 -2.21543670E-03
 -8.98136895E-12  2.60148868E-03  3.47944447E-03 -2.59370835E-12 -4.87345073E-03
 -8.56454001E-03 -2.34889922E-11  3.73230549E-03  3.65725981E-03  2.29165762E-12
 -1.25037137E-02  8.76854686E-04 -1.35982849E-11  8.62900454E-03 -1.52363188E-02
  1.41589066E-11 -5.15339140E-02  6.42978321E-03 -9.06004082E-12 -2.75715855E-01
 -1.13893674E-01 -1.35158822E-13  4.83018971E-03  3.13836371E-03 -2.88045822E-12
  7.03244747E-01 -3.61136914E-13 -8.68403856E-03  1.24253663E-02 -7.70212769E-13
  1.03545839E-02 -3.20031516E-03  1.56903202E-12 -5.22431392E-03  6.24683507E-03
 -1.15968275E-12 -3.12302190E-03 -4.48302333E-03  6.66094582E-13  7.54519669E-03
  3.08348508E-03  3.77666132E-13 -8.56454001E-03 -1.13465277E-02 -1.48261753E-11
  1.14917609E-02 -2.81620071E-03  3.11328449E-11  3.30581543E-04  1.79333516E-03
  1.67995995E-12 -1.58542690E-02 -2.51983405E-02 -1.79845691E-12 -1.17995311E-02
  3.81582900E-02  1.03858642E-12 -6.15315922E-02 -1.67624439E-01 -2.89049036E-14
 -2.89189947E-02 -1.11578399E-02  3.66173656E-13 -4.42820075E-02  7.13818352E-01
  2.17592647E-04 -2.59370845E-12 -3.77665791E-13 -2.44421337E-05 -7.38351388E-13
 -8.21795800E-14 -1.13060964E-04  4.00368101E-13  8.25875466E-13 -3.75429478E-04
  2.65433464E-13 -1.30578425E-12 -1.30244172E-04 -7.58432856E-13  1.37362559E-13
  5.72942756E-05 -2.35776875E-12  3.61137671E-13 -1.22295268E-03  9.07065789E-12
  1.17016031E-12  5.91265678E-03 -1.34776718E-11 -1.45011324E-12  4.36531655E-03
 -2.36557670E-13 -1.14535248E-12 -3.21493013E-03 -4.61840751E-13  1.04947923E-12
  7.10442471E-03  4.03539779E-13 -3.67726314E-13  4.40513755E-03  3.67537338E-12
  9.95176025E-13 -5.45145362E-02  3.12748173E-12 -3.42301275E-13  1.15771646E-01
  2.59370783E-12 -4.87345073E-03  8.56454001E-03  8.98136916E-12  2.60148868E-03
 -3.47944447E-03 -1.47283564E-11  6.56622001E-03  2.21543670E-03  1.47775674E-11
 -6.92398891E-03 -2.03183930E-03 -9.04930920E-12  9.51190018E-03  1.76960253E-03
 -2.35776981E-12 -9.39575909E-03 -8.68403856E-03 -2.29165756E-12 -1.25037137E-02
 -8.76854686E-04  2.34889920E-11  3.73230549E-03 -3.65725981E-03 -1.41589066E-11
 -5.15339140E-02 -6.42978321E-03  1.35982849E-11  8.62900454E-03  1.52363188E-02
 -8.66921052E-12  1.32544618E-02 -2.91417793E-02 -1.97448046E-14 -5.30033093E-03
 -3.13391536E-03 -3.12748173E-12 -1.16162799E-01 -2.98676042E-02  2.88045822E-12
  7.03244747E-01  3.77666840E-13  8.56454001E-03 -1.13465277E-02  6.66094392E-13
 -7.54519669E-03  3.08348508E-03 -1.15968249E-12  3.12302190E-03 -4.48302333E-03
  1.56903243E-12  5.22431392E-03  6.24683507E-03 -7.70212958E-13 -1.03545839E-02
 -3.20031516E-03 -3.61136157E-13  8.68403856E-03  1.24253663E-02  3.11328448E-11
 -3.30581543E-04  1.79333516E-03 -1.48261758E-11 -1.14917609E-02 -2.81620071E-03
 -1.79845691E-12  1.17995311E-02  3.81582900E-02  1.67995995E-12  1.58542690E-02
 -2.51983405E-02 -1.10605200E-12 -5.74108770E-02 -3.17954730E-02  1.50184233E-14
 -1.83342363E-03  7.28175772E-04 -3.42301275E-13  2.98676042E-02 -3.75426254E-01
  3.66173656E-13  4.42820075E-02  7.13818352E-01 -2.44421337E-05 -8.98136884E-12
 -6.66095316E-13 -3.29928851E-04 -2.55298872E-12 -1.85066295E-12 -1.41183914E-03
  1.65326730E-12  3.27933452E-12  4.37336200E-03  1.46167615E-12 -3.20725924E-12
  3.24868744E-04 -2.45511191E-12  1.50234861E-12 -1.30244172E-04 -9.04930941E-12
  7.70212580E-13  4.87553522E-03  3.59028387E-12  2.62957108E-12  5.54904982E-03
 -1.03126257E-11 -1.92934086E-12 -5.59042683E-02 -1.25309139E-12 -3.45926609E-12
  3.95919099E-03 -1.23815931E-12  3.54852016E-12 -8.05404697E-03  2.54056486E-12
 -1.57965670E-12  2.61036995E-04  9.52540537E-12  2.38428848E-12  7.10442471E-03
  8.66921052E-12 -1.10605200E-12 -5.20799353E-02  9.06004082E-12  1.03858642E-12
  1.17101570E-01  7.38351709E-13  2.60148868E-03 -7.54519669E-03  2.55298900E-12
  1.93660542E-03  2.99246629E-03 -4.65570139E-12 -9.56511897E-03 -5.89965012E-03
  4.42921155E-12  1.65485004E-02  1.19606692E-02 -2.45511206E-12 -1.50902096E-02
 -1.21142573E-03 -7.58431587E-13  9.51190018E-03  1.03545839E-02  4.58053243E-12
  1.58649235E-02  6.30544168E-03 -8.18239081E-12 -6.40255358E-02 -1.07701020E-02
 -4.49937968E-12 -2.67735155E-01 -9.16831478E-02  4.81363503E-12  1.32293212E-03
 -4.13432962E-02 -2.54056486E-12 -2.66796464E-02 -1.39383564E-03 -1.28704509E-13
 -7.41683958E-04  1.16821022E-04 -4.03539779E-13  1.32544618E-02  5.74108770E-02
  7.27794837E-13 -2.75715855E-01  6.15315922E-02  2.52759837E-12  6.72696343E-01
  8.21791539E-14 -3.47944447E-03  3.08348508E-03  1.85066332E-12  2.99246629E-03
 -1.13640167E-03 -4.00643176E-12 -3.13752611E-04 -2.05408066E-03  3.56258863E-12
  7.97808186E-03 -7.46667420E-04 -1.50234831E-12  1.21142573E-03  2.77784501E-03
 -1.37362935E-13 -1.76960253E-03 -3.20031516E-03  9.42722556E-11  2.22843023E-03
 -8.20764373E-03 -1.16764604E-10  6.22396922E-03  1.76465609E-02 -3.92927033E-12
 -1.09456145E-01 -1.81154270E-01  3.95942785E-12 -3.02523796E-02 -1.73309523E-02
 -1.57965670E-12  1.39383564E-03  2.61795293E-03 -2.62352387E-13  3.53085643E-04
  4.65235792E-04 -3.67726314E-13  2.91417793E-02 -3.17954730E-02  1.33446993E-13
  1.13893674E-01 -1.67624439E-01  1.53679146E-12 -2.55667702E-03  7.23883863E-01
 -5.65928674E-04 -3.35727330E-11  3.36047130E-11 -2.68430547E-03  2.57800223E-11
  1.47570113E-10  4.34587769E-03 -8.13054146E-11 -4.25228143E-11  4.84101741E-03
 -8.89356263E-11  2.54026567E-11  3.32401243E-04  7.51027801E-12 -1.21517865E-10
  5.24057511E-04 -1.47609268E-11 -3.76114986E-11 -3.33485623E-02 -1.81072527E-10
 -1.11387048E-12  6.60099355E-04  1.19497438E-10 -6.03255326E-13  4.84101741E-03
 -8.89356271E-11 -2.54026570E-11  4.34587769E-03 -8.13054146E-11  4.25228160E-11
 -2.68430547E-03  2.57800220E-11 -1.47570113E-10  7.52608681E-04  6.66888033E-11
  2.92200429E-11 -5.65928674E-04 -3.35727330E-11 -3.36047131E-11  5.24057511E-04
 -1.47609268E-11  3.76114986E-11  3.32401243E-04  7.51027807E-12  1.21517865E-10
  1.97652842E-02  1.38097616E-11  2.72401920E-05 -4.17132476E-04  1.08002021E-11
  1.71562688E-03  1.74217436E-03  1.18354613E-11  3.40062212E-03  2.83184132E-02
  4.51814959E-11 -5.17069688E-03  1.05653477E-03  3.82913802E-12  5.13360643E-04
  1.56275053E-03  8.37057548E-12  2.24959960E-04  8.19445813E-05 -2.89818814E-11
 -5.88267052E-02  9.44826928E-12 -1.52112168E-10 -7.39856122E-04  1.20778119E-11
  4.51814952E-11 -5.17069688E-03 -1.05653477E-03  1.18354614E-11  3.40062212E-03
 -2.83184132E-02  1.08002018E-11  1.71562688E-03 -1.74217436E-03 -1.39921396E-12
 -3.61997087E-04  1.00837349E-03  1.38097615E-11  2.72401920E-05  4.17132476E-04
  8.37057546E-12  2.24959960E-04 -8.19445813E-05  3.82913793E-12  5.13360643E-04
 -1.56275053E-03 -6.99352873E-12  5.95853409E-02  3.81080823E-13  2.81684222E-04
  1.43421990E-04  1.89285899E-13 -1.53069753E-03  9.51221939E-04  2.24297135E-13
 -2.31010323E-03 -1.27626743E-02 -7.48194881E-13  2.84969037E-03  1.04683897E-03
 -3.67584331E-13 -7.04765064E-04 -8.24282968E-04 -2.82841100E-13 -2.09754692E-05
  2.08197417E-04  1.98289062E-13 -1.00038284E-10 -3.39402179E-01  3.38132077E-13
 -5.87734215E-11  4.16585392E-04  2.03216753E-13 -2.84969029E-03  1.04683900E-03
 -1.71487173E-13  2.31010334E-03 -1.27626743E-02 -4.20460536E-13  1.53069753E-03
  9.51222033E-04  2.65695671E-13 -9.62198960E-04  3.96258724E-04 -8.29466963E-13
 -2.81684218E-04  1.43422030E-04  6.16816047E-13  2.09755186E-05  2.08197383E-04
  3.52978455E-13  7.04765043E-04 -8.24283118E-04  9.02079688E-14 -4.35487875E-12
  3.61089783E-01 -3.27926899E-02 -1.04209190E-12 -1.28519356E-13  2.39125126E-03
 -4.62381482E-13 -5.84480442E-13  5.29397365E-03 -3.54198248E-14  4.87885772E-13
 -1.32070295E-03 -2.77516097E-14 -5.17846956E-13  7.32080836E-03 -4.66628227E-13
  5.90156978E-13  3.45486173E-03 -1.05066713E-12  1.19520671E-13 -3.40030183E-05
  9.23510659E-13 -1.64835903E-13 -8.95855838E-04 -7.90904539E-13  9.70583876E-14
  2.02879933E-04 -9.78926746E-15 -5.65397551E-13  3.30661016E-04 -2.00620098E-14
  5.41387181E-13 -2.91075008E-05  4.62896218E-13 -5.99260660E-13  2.59556066E-05
  5.26039719E-13 -2.13852927E-14 -1.11595910E-04  9.94468821E-13 -7.63135493E-14
 -7.87731649E-05  9.75084455E-13  9.69319525E-14  6.36679957E-05  4.09325456E-13
  5.42878495E-13 -6.84641191E-05  8.97656766E-13 -2.28759419E-13  2.28208022E-02
  2.94168459E-12 -2.74142872E-01 -1.25848916E-01  9.75983519E-12 -1.85218583E-02
 -1.63446289E-02 -1.61447224E-11 -2.39399228E-03  4.38099824E-03  1.63019452E-11
  2.29820173E-05  6.50019659E-04 -9.60851827E-12  1.44968177E-03  6.16390823E-04
 -3.06706771E-12  3.99307783E-03  2.49489143E-03  9.91852064E-12 -4.75683277E-04
 -1.31849368E-03 -1.18622304E-11  2.17748854E-04 -7.40082793E-05 -1.67096273E-11
 -1.03689615E-04  4.32451973E-05  1.61957601E-11 -3.83590470E-04  3.58423236E-04
 -9.68578688E-12 -6.42585018E-05 -9.17478363E-05 -1.82409107E-13  1.42489202E-05
  1.37790856E-05 -3.09627308E-12 -1.04152848E-05 -5.45299861E-05  3.10787247E-12
 -2.69131980E-05  5.87928918E-05  9.76551904E-12  5.93523930E-06 -3.06921965E-05
  1.57633057E-11 -1.52958453E-05  5.68679175E-05  1.28228277E-12  2.88664625E-01
  2.69048252E-12 -1.25424385E-01 -1.33125789E-01  6.68410620E-12  1.55462864E-02
  1.17096129E-02 -9.39990192E-12  2.94711903E-03 -1.62608413E-03  9.35893736E-12
  4.27639422E-04 -3.76526672E-04 -6.98650611E-12  1.94255621E-03 -5.71633862E-03
 -2.39102928E-12 -2.97059994E-02 -1.03830163E-02 -1.37998413E-11  5.82326333E-04
  6.65802189E-04  1.43709322E-11  5.87875610E-05  1.10477178E-04 -9.73900791E-12
 -1.40739318E-04 -1.40359442E-04  9.35144426E-12  2.96604034E-04 -8.15010459E-05
 -6.87702833E-12 -1.49622172E-04  5.73946328E-05  1.91087536E-13  8.37058646E-07
  1.99769783E-06 -2.70770539E-12  2.43061393E-04  1.15912118E-04  2.82220802E-12
  8.29551601E-05 -1.94208976E-04  6.88610673E-12 -1.40087070E-04  5.65480228E-05
 -2.22636928E-11 -1.52244177E-05 -1.08671696E-05  4.76030008E-13  1.35046424E-01
  1.37758111E-01  3.30227304E-03 -1.35158821E-13  2.89049018E-14 -3.29784230E-02
 -2.00998702E-13 -3.19905554E-13  3.31933862E-03 -7.60297774E-14  1.24750021E-13
  6.38363001E-03 -2.28188820E-14 -5.28281305E-14  2.61036995E-04 -1.28704393E-13
  2.62352443E-13  4.40513755E-03 -1.97434244E-14 -1.50188730E-14 -3.59697947E-03
 -1.50978810E-12 -1.89218307E-13  7.79373354E-04  1.14042991E-12  2.41652196E-13
  4.73771399E-04  4.98656594E-14 -1.21035564E-13 -4.03210855E-04  3.51832985E-14
  8.18549269E-14 -1.56353136E-05  9.70987001E-14 -2.00636319E-13 -3.51414648E-05
 -3.47990554E-13 -1.96030758E-13  5.13272588E-05  5.67689997E-14  5.65394096E-14
  6.13981943E-05  1.10134580E-13 -1.00214959E-13 -3.05176266E-05  9.22120224E-14
  2.67046249E-13  7.52608681E-04 -1.39921390E-12 -1.59606459E-13 -2.68285867E-03
  1.53234188E-13 -2.53895295E-13  2.15174413E-02 -3.39195787E-12  4.83018971E-03
  2.89189947E-02 -9.79509461E-12 -5.93517670E-02 -1.07033939E-03  1.25751749E-11
  3.62184610E-03 -2.82158598E-02 -1.26049608E-11 -5.13598572E-03 -1.20804881E-03
  9.52540547E-12 -7.41683958E-04 -3.53085643E-04  3.67537468E-12 -5.30033093E-03
  1.83342363E-03  4.47301051E-11  1.52438669E-03 -1.88372833E-03 -3.86863778E-11
  5.96506804E-04 -1.45725424E-03  1.26795009E-11  2.12650308E-04 -8.05559498E-06
 -1.27973874E-11  1.25992285E-04  4.51179173E-04  9.70750461E-12 -8.06437930E-05
 -9.48235864E-05 -3.47990554E-13 -3.53239983E-05  1.13272188E-05  3.32685953E-12
  4.81691808E-05  8.59670402E-05 -3.39743206E-12 -3.11084011E-05 -6.32186096E-05
 -9.69106555E-12  5.05821744E-05  1.49828195E-04  6.66888033E-11 -3.61997087E-04
  9.62198899E-04 -5.04704753E-13  9.71277488E-04 -4.76117926E-04  3.42861666E-13
  5.91525640E-02  1.05476408E-12 -3.13836371E-03 -1.11578399E-02  2.65713986E-12
 -9.99080896E-04 -3.43432413E-01 -3.06353682E-12  1.91977709E-03 -1.26924319E-02
  2.91407632E-12 -2.87303211E-03  8.73415491E-04 -2.38428845E-12 -1.16821022E-04
  4.65235792E-04 -9.95176634E-13  3.13391536E-03  7.28175772E-04 -2.44804645E-11
  1.81875588E-03  7.57136906E-04  7.67212185E-12  6.81233072E-04 -6.85447099E-04
 -3.16673095E-12  7.62333101E-05  1.83458039E-04  2.81944452E-12 -3.94327238E-04
  2.01619766E-04 -2.06012812E-12  4.82100969E-06 -1.15449062E-04  1.96030759E-13
 -1.13272188E-05  3.40660657E-05 -1.05888572E-12 -2.14696784E-05  2.23083409E-05
  8.42440178E-13  2.30453069E-05 -1.70699827E-05  2.48599049E-12 -4.32110090E-05